 vasp.5.4.4.18Apr17-6-g9f103f2a35 (build May 02 2017 21:33:38) complex          
  
 executed on             LinuxIFC date 2019.02.02  15:06:51
 running on   24 total cores
 distrk:  each k-point on   24 cores,    1 groups
 distr:  one band on NCORES_PER_BAND=  24 cores,    1 groups


--------------------------------------------------------------------------------------------------------


 INCAR:
 POTCAR:    PAW_PBE Fe 06Sep2000                  
 POTCAR:    PAW_PBE Nb_pv 08Apr2002               
 POTCAR:    PAW_PBE Sb 06Sep2000                  

 ----------------------------------------------------------------------------- 
|                                                                             |
|           W    W    AA    RRRRR   N    N  II  N    N   GGGG   !!!           |
|           W    W   A  A   R    R  NN   N  II  NN   N  G    G  !!!           |
|           W    W  A    A  R    R  N N  N  II  N N  N  G       !!!           |
|           W WW W  AAAAAA  RRRRR   N  N N  II  N  N N  G  GGG   !            |
|           WW  WW  A    A  R   R   N   NN  II  N   NN  G    G                |
|           W    W  A    A  R    R  N    N  II  N    N   GGGG   !!!           |
|                                                                             |
|      For optimal performance we recommend to set                            |
|        NCORE= 4 - approx SQRT( number of cores)                             |
|      NCORE specifies how many cores store one orbital (NPAR=cpu/NCORE).     |
|      This setting can  greatly improve the performance of VASP for DFT.     |
|      The default,   NCORE=1            might be grossly inefficient         |
|      on modern multi-core architectures or massively parallel machines.     |
|      Do your own testing !!!!                                               |
|      Unfortunately you need to use the default for GW and RPA calculations. |
|      (for HF NCORE is supported but not extensively tested yet)             |
|                                                                             |
 ----------------------------------------------------------------------------- 

 POTCAR:    PAW_PBE Fe 06Sep2000                  
   VRHFIN =Fe:  d7 s1                                                           
   LEXCH  = PE                                                                  
   EATOM  =   594.3153 eV,   43.6809 Ry                                         
                                                                                
   TITEL  = PAW_PBE Fe 06Sep2000                                                
   LULTRA =        F    use ultrasoft PP ?                                      
   IUNSCR =        1    unscreen: 0-lin 1-nonlin 2-no                           
   RPACOR =    2.000    partial core radius                                     
   POMASS =   55.847; ZVAL   =    8.000    mass and valenz                      
   RCORE  =    2.300    outmost cutoff radius                                   
   RWIGS  =    2.460; RWIGS  =    1.302    wigner-seitz radius (au A)           
   ENMAX  =  267.882; ENMIN  =  200.911 eV                                      
   RCLOC  =    1.701    cutoff for local pot                                    
   LCOR   =        T    correct aug charges                                     
   LPAW   =        T    paw PP                                                  
   EAUG   =  511.368                                                            
   DEXC   =    0.000                                                            
   RMAX   =    2.356    core radius for proj-oper                               
   RAUG   =    1.300    factor for augmentation sphere                          
   RDEP   =    2.442    radius for radial grids                                 
   RDEPT  =    1.890    core radius for aug-charge                              
                                                                                
   Atomic configuration                                                         
    9 entries                                                                   
     n  l   j            E        occ.                                          
     1  0  0.50     -6993.8440   2.0000                                         
     2  0  0.50      -814.6047   2.0000                                         
     2  1  1.50      -693.3689   6.0000                                         
     3  0  0.50       -89.4732   2.0000                                         
     3  1  1.50       -55.6373   6.0000                                         
     3  2  2.50        -3.8151   7.0000                                         
     4  0  0.50        -4.2551   1.0000                                         
     4  1  1.50        -3.4015   0.0000                                         
     4  3  2.50        -1.3606   0.0000                                         
   Description                                                                  
     l       E           TYP  RCUT    TYP  RCUT                                 
     2     -3.8151135     23  2.300                                             
     2     -5.1756961     23  2.300                                             
     0     -4.2550963     23  2.300                                             
     0      7.2035603     23  2.300                                             
     1     -2.7211652     23  2.300                                             
     1     18.4316424     23  2.300                                             
  local pseudopotential read in
  partial core-charges read in
  partial kinetic energy density read in
  atomic valenz-charges read in
  non local Contribution for L=           2  read in
    real space projection operators read in
  non local Contribution for L=           2  read in
    real space projection operators read in
  non local Contribution for L=           0  read in
    real space projection operators read in
  non local Contribution for L=           0  read in
    real space projection operators read in
  non local Contribution for L=           1  read in
    real space projection operators read in
  non local Contribution for L=           1  read in
    real space projection operators read in
    PAW grid and wavefunctions read in
 
   number of l-projection  operators is LMAX  =           6
   number of lm-projection operators is LMMAX =          18
 
 POTCAR:    PAW_PBE Nb_pv 08Apr2002               
   VRHFIN =Nb: 4p5s4d                                                           
   LEXCH  = PE                                                                  
   EATOM  =  1043.3917 eV,   76.6871 Ry                                         
                                                                                
   TITEL  = PAW_PBE Nb_pv 08Apr2002                                             
   LULTRA =        F    use ultrasoft PP ?                                      
   IUNSCR =        1    unscreen: 0-lin 1-nonlin 2-no                           
   RPACOR =    2.200    partial core radius                                     
   POMASS =   92.000; ZVAL   =   11.000    mass and valenz                      
   RCORE  =    2.750    outmost cutoff radius                                   
   RWIGS  =    2.840; RWIGS  =    1.503    wigner-seitz radius (au A)           
   ENMAX  =  208.608; ENMIN  =  156.456 eV                                      
   RCLOC  =    2.201    cutoff for local pot                                    
   LCOR   =        T    correct aug charges                                     
   LPAW   =        T    paw PP                                                  
   EAUG   =  355.067                                                            
   DEXC   =    0.000                                                            
   RMAX   =    2.804    core radius for proj-oper                               
   RAUG   =    1.300    factor for augmentation sphere                          
   RDEP   =    2.776    radius for radial grids                                 
   RDEPT  =    2.198    core radius for aug-charge                              
                                                                                
   Atomic configuration                                                         
   11 entries                                                                   
     n  l   j            E        occ.                                          
     1  0  0.50    -18805.2456   2.0000                                         
     2  0  0.50     -2630.2869   2.0000                                         
     2  1  1.50     -2348.4045   6.0000                                         
     3  0  0.50      -438.8756   2.0000                                         
     3  1  1.50      -346.7587   6.0000                                         
     3  2  2.50      -196.2559  10.0000                                         
     4  0  0.50       -58.3859   2.0000                                         
     4  1  1.50       -34.5141   6.0000                                         
     4  2  2.50        -3.0408   4.0000                                         
     5  0  0.50        -3.9816   1.0000                                         
     4  3  2.50        -1.3606   0.0000                                         
   Description                                                                  
     l       E           TYP  RCUT    TYP  RCUT                                 
     1    -34.5140617     23  2.600                                             
     1     -1.3605826     23  2.600                                             
     2     -3.0407924     23  2.600                                             
     2     -1.4463597     23  2.600                                             
     0     -3.9816219     23  2.750                                             
     0     20.4087390     23  2.750                                             
  local pseudopotential read in
  partial core-charges read in
  partial kinetic energy density read in
  atomic valenz-charges read in
  non local Contribution for L=           1  read in
    real space projection operators read in
  non local Contribution for L=           1  read in
    real space projection operators read in
  non local Contribution for L=           2  read in
    real space projection operators read in
  non local Contribution for L=           2  read in
    real space projection operators read in
  non local Contribution for L=           0  read in
    real space projection operators read in
  non local Contribution for L=           0  read in
    real space projection operators read in
    PAW grid and wavefunctions read in
 
   number of l-projection  operators is LMAX  =           6
   number of lm-projection operators is LMMAX =          18
 
 POTCAR:    PAW_PBE Sb 06Sep2000                  
   VRHFIN =Sb: s2p3                                                             
   LEXCH  = PE                                                                  
   EATOM  =   149.9515 eV,   11.0211 Ry                                         
                                                                                
   TITEL  = PAW_PBE Sb 06Sep2000                                                
   LULTRA =        F    use ultrasoft PP ?                                      
   IUNSCR =        1    unscreen: 0-lin 1-nonlin 2-no                           
   RPACOR =    2.200    partial core radius                                     
   POMASS =  121.750; ZVAL   =    5.000    mass and valenz                      
   RCORE  =    2.300    outmost cutoff radius                                   
   RWIGS  =    2.980; RWIGS  =    1.577    wigner-seitz radius (au A)           
   ENMAX  =  172.069; ENMIN  =  129.052 eV                                      
   ICORE  =        3    local potential                                         
   LCOR   =        T    correct aug charges                                     
   LPAW   =        T    paw PP                                                  
   EAUG   =  380.513                                                            
   DEXC   =    0.000                                                            
   RMAX   =    2.346    core radius for proj-oper                               
   RAUG   =    1.300    factor for augmentation sphere                          
   RDEP   =    2.360    radius for radial grids                                 
   RDEPT  =    2.192    core radius for aug-charge                              
                                                                                
   Atomic configuration                                                         
   13 entries                                                                   
     n  l   j            E        occ.                                          
     1  0  0.50    -30298.2797   2.0000                                         
     2  0  0.50     -4610.2252   2.0000                                         
     2  1  1.50     -4138.3407   6.0000                                         
     3  0  0.50      -903.8815   2.0000                                         
     3  1  1.50      -750.1337   6.0000                                         
     3  2  2.50      -515.7092  10.0000                                         
     4  0  0.50      -148.8034   2.0000                                         
     4  1  1.50      -101.7581   6.0000                                         
     4  2  2.50       -33.5048  10.0000                                         
     5  0  0.50       -12.8298   2.0000                                         
     5  1  0.50        -4.8276   3.0000                                         
     5  2  1.50        -4.0817   0.0000                                         
     4  3  2.50        -4.0817   0.0000                                         
   Description                                                                  
     l       E           TYP  RCUT    TYP  RCUT                                 
     0    -12.8297861     23  2.300                                             
     0     13.6058260     23  2.300                                             
     1     -4.8275512     23  2.300                                             
     1     -0.7245443     23  2.300                                             
     2     -4.0817478     23  2.300                                             
     3     -1.3605826     23  2.300                                             
  local pseudopotential read in
  partial core-charges read in
  partial kinetic energy density read in
  atomic valenz-charges read in
  non local Contribution for L=           0  read in
    real space projection operators read in
  non local Contribution for L=           0  read in
    real space projection operators read in
  non local Contribution for L=           1  read in
    real space projection operators read in
  non local Contribution for L=           1  read in
    real space projection operators read in
  non local Contribution for L=           2  read in
    real space projection operators read in
    PAW grid and wavefunctions read in
 
   number of l-projection  operators is LMAX  =           5
   number of lm-projection operators is LMMAX =          13
 
  PAW_PBE Fe 06Sep2000                  :
 energy of atom  1       EATOM= -594.3153
 kinetic energy error for atom=    0.0026 (will be added to EATOM!!)
  PAW_PBE Nb_pv 08Apr2002               :
 energy of atom  2       EATOM=-1043.3917
 kinetic energy error for atom=    0.0011 (will be added to EATOM!!)
  PAW_PBE Sb 06Sep2000                  :
 energy of atom  3       EATOM= -149.9515
 kinetic energy error for atom=    0.0005 (will be added to EATOM!!)
 
 
 POSCAR: Fe1 Nb1 Sb1                             
  positions in direct lattice
  velocities in cartesian coordinates
 exchange correlation table for  LEXCH =        8
   RHO(1)=    0.500       N(1)  =     2000
   RHO(2)=  100.500       N(2)  =     4000
 


--------------------------------------------------------------------------------------------------------


 ion  position               nearest neighbor table
   1  0.750  0.750  0.750-   3 2.56   3 2.56   3 2.56   2 2.56   3 2.56   2 2.56   2 2.56   2 2.56

   2  0.000  0.000  0.000-   1 2.56   1 2.56   1 2.56   1 2.56   3 2.96   3 2.96   3 2.96   3 2.96
                             3 2.96   3 2.96
   3  0.500  0.500  0.500-   1 2.56   1 2.56   1 2.56   1 2.56   2 2.96   2 2.96   2 2.96   2 2.96
                             2 2.96   2 2.96
 
  LATTYP: Found a face centered cubic cell.
 ALAT       =     5.9129752745
  
  Lattice vectors:
  
 A1 = (   0.0000000000,   2.9564876373,   2.9564876373)
 A2 = (   2.9564876373,   0.0000000000,   2.9564876373)
 A3 = (   2.9564876373,   2.9564876373,   0.0000000000)


Analysis of symmetry for initial positions (statically):
=====================================================================
 Subroutine PRICEL returns:
 Original cell was already a primitive cell.
 

 Routine SETGRP: Setting up the symmetry group for a 
 face centered cubic supercell.


 Subroutine GETGRP returns: Found 24 space group operations
 (whereof 24 operations were pure point group operations)
 out of a pool of 48 trial point group operations.


The static configuration has the point symmetry T_d .


Analysis of symmetry for dynamics (positions and initial velocities):
=====================================================================
 Subroutine PRICEL returns:
 Original cell was already a primitive cell.
 

 Routine SETGRP: Setting up the symmetry group for a 
 face centered cubic supercell.


 Subroutine GETGRP returns: Found 24 space group operations
 (whereof 24 operations were pure point group operations)
 out of a pool of 48 trial point group operations.


The dynamic configuration has the point symmetry T_d .


 Subroutine INISYM returns: Found 24 space group operations
 (whereof 24 operations are pure point group operations),
 and found     1 'primitive' translations

 
 
 KPOINTS: KPOINTS                                 

Automatic generation of k-mesh.
Space group operators:
 irot       det(A)        alpha          n_x          n_y          n_z        tau_x        tau_y        tau_z
    1     1.000000     0.000001     1.000000     0.000000     0.000000     0.000000     0.000000     0.000000
    2     1.000000   120.000000    -0.577350    -0.577350    -0.577350     0.000000     0.000000     0.000000
    3     1.000000   120.000000     0.577350     0.577350     0.577350     0.000000     0.000000     0.000000
    4    -1.000000    90.000000     0.000000     0.000000    -1.000000     0.000000     0.000000     0.000000
    5    -1.000000   180.000000     0.000000     0.707107     0.707107     0.000000     0.000000     0.000000
    6    -1.000000    90.000000     0.000000     1.000000     0.000000     0.000000     0.000000     0.000000
    7     1.000000   180.000000     0.000000     0.000000     1.000000     0.000000     0.000000     0.000000
    8     1.000000   120.000000    -0.577350     0.577350     0.577350     0.000000     0.000000     0.000000
    9     1.000000   120.000000    -0.577350     0.577350    -0.577350     0.000000     0.000000     0.000000
   10    -1.000000    90.000000     0.000000     0.000000     1.000000     0.000000     0.000000     0.000000
   11    -1.000000    90.000000    -1.000000     0.000000     0.000000     0.000000     0.000000     0.000000
   12    -1.000000   180.000000     0.707107     0.000000     0.707107     0.000000     0.000000     0.000000
   13     1.000000   120.000000     0.577350    -0.577350     0.577350     0.000000     0.000000     0.000000
   14     1.000000   120.000000    -0.577350    -0.577350     0.577350     0.000000     0.000000     0.000000
   15     1.000000   180.000000     1.000000     0.000000     0.000000     0.000000     0.000000     0.000000
   16    -1.000000    90.000000     0.000000    -1.000000     0.000000     0.000000     0.000000     0.000000
   17    -1.000000   180.000000     0.707107     0.707107     0.000000     0.000000     0.000000     0.000000
   18    -1.000000    90.000000     1.000000     0.000000     0.000000     0.000000     0.000000     0.000000
   19     1.000000   120.000000     0.577350    -0.577350    -0.577350     0.000000     0.000000     0.000000
   20     1.000000   180.000000     0.000000     1.000000     0.000000     0.000000     0.000000     0.000000
   21     1.000000   120.000000     0.577350     0.577350    -0.577350     0.000000     0.000000     0.000000
   22    -1.000000   180.000000     0.000000    -0.707107     0.707107     0.000000     0.000000     0.000000
   23    -1.000000   180.000000     0.707107    -0.707107     0.000000     0.000000     0.000000     0.000000
   24    -1.000000   180.000000     0.707107     0.000000    -0.707107     0.000000     0.000000     0.000000
 
 Subroutine IBZKPT returns following result:
 ===========================================
 
 Found   2168 irreducible k-points:
 
 Following reciprocal coordinates:
            Coordinates               Weight
  0.000000  0.000000  0.000000      1.000000
  0.022727  0.000000  0.000000      8.000000
  0.045455  0.000000  0.000000      8.000000
  0.068182  0.000000  0.000000      8.000000
  0.090909  0.000000  0.000000      8.000000
  0.113636  0.000000  0.000000      8.000000
  0.136364  0.000000  0.000000      8.000000
  0.159091  0.000000  0.000000      8.000000
  0.181818  0.000000  0.000000      8.000000
  0.204545  0.000000  0.000000      8.000000
  0.227273  0.000000  0.000000      8.000000
  0.250000  0.000000  0.000000      8.000000
  0.272727  0.000000  0.000000      8.000000
  0.295455  0.000000  0.000000      8.000000
  0.318182  0.000000  0.000000      8.000000
  0.340909  0.000000  0.000000      8.000000
  0.363636  0.000000  0.000000      8.000000
  0.386364  0.000000  0.000000      8.000000
  0.409091  0.000000  0.000000      8.000000
  0.431818  0.000000  0.000000      8.000000
  0.454545  0.000000  0.000000      8.000000
  0.477273  0.000000  0.000000      8.000000
  0.500000  0.000000  0.000000      4.000000
  0.022727  0.022727  0.000000      6.000000
  0.045455  0.022727  0.000000     24.000000
  0.068182  0.022727  0.000000     24.000000
  0.090909  0.022727  0.000000     24.000000
  0.113636  0.022727  0.000000     24.000000
  0.136364  0.022727  0.000000     24.000000
  0.159091  0.022727  0.000000     24.000000
  0.181818  0.022727  0.000000     24.000000
  0.204545  0.022727  0.000000     24.000000
  0.227273  0.022727  0.000000     24.000000
  0.250000  0.022727  0.000000     24.000000
  0.272727  0.022727  0.000000     24.000000
  0.295455  0.022727  0.000000     24.000000
  0.318182  0.022727  0.000000     24.000000
  0.340909  0.022727  0.000000     24.000000
  0.363636  0.022727  0.000000     24.000000
  0.386364  0.022727  0.000000     24.000000
  0.409091  0.022727  0.000000     24.000000
  0.431818  0.022727  0.000000     24.000000
  0.454545  0.022727  0.000000     24.000000
  0.477273  0.022727  0.000000     24.000000
  0.500000  0.022727  0.000000     24.000000
 -0.477273  0.022727  0.000000     24.000000
 -0.454545  0.022727  0.000000     24.000000
 -0.431818  0.022727  0.000000     24.000000
 -0.409091  0.022727  0.000000     24.000000
 -0.386364  0.022727  0.000000     24.000000
 -0.363636  0.022727  0.000000     24.000000
 -0.340909  0.022727  0.000000     24.000000
 -0.318182  0.022727  0.000000     24.000000
 -0.295455  0.022727  0.000000     24.000000
 -0.272727  0.022727  0.000000     24.000000
 -0.250000  0.022727  0.000000     24.000000
 -0.227273  0.022727  0.000000     24.000000
 -0.204545  0.022727  0.000000     24.000000
 -0.181818  0.022727  0.000000     24.000000
 -0.159091  0.022727  0.000000     24.000000
 -0.136364  0.022727  0.000000     24.000000
 -0.113636  0.022727  0.000000     24.000000
 -0.090909  0.022727  0.000000     24.000000
 -0.068182  0.022727  0.000000     24.000000
 -0.045455  0.022727  0.000000     24.000000
 -0.022727  0.022727  0.000000     12.000000
  0.045455  0.045455  0.000000      6.000000
  0.068182  0.045455  0.000000     24.000000
  0.090909  0.045455  0.000000     24.000000
  0.113636  0.045455  0.000000     24.000000
  0.136364  0.045455  0.000000     24.000000
  0.159091  0.045455  0.000000     24.000000
  0.181818  0.045455  0.000000     24.000000
  0.204545  0.045455  0.000000     24.000000
  0.227273  0.045455  0.000000     24.000000
  0.250000  0.045455  0.000000     24.000000
  0.272727  0.045455  0.000000     24.000000
  0.295455  0.045455  0.000000     24.000000
  0.318182  0.045455  0.000000     24.000000
  0.340909  0.045455  0.000000     24.000000
  0.363636  0.045455  0.000000     24.000000
  0.386364  0.045455  0.000000     24.000000
  0.409091  0.045455  0.000000     24.000000
  0.431818  0.045455  0.000000     24.000000
  0.454545  0.045455  0.000000     24.000000
  0.477273  0.045455  0.000000     24.000000
  0.500000  0.045455  0.000000     24.000000
 -0.477273  0.045455  0.000000     24.000000
 -0.454545  0.045455  0.000000     24.000000
 -0.431818  0.045455  0.000000     24.000000
 -0.409091  0.045455  0.000000     24.000000
 -0.386364  0.045455  0.000000     24.000000
 -0.363636  0.045455  0.000000     24.000000
 -0.340909  0.045455  0.000000     24.000000
 -0.318182  0.045455  0.000000     24.000000
 -0.295455  0.045455  0.000000     24.000000
 -0.272727  0.045455  0.000000     24.000000
 -0.250000  0.045455  0.000000     24.000000
 -0.227273  0.045455  0.000000     24.000000
 -0.204545  0.045455  0.000000     24.000000
 -0.181818  0.045455  0.000000     24.000000
 -0.159091  0.045455  0.000000     24.000000
 -0.136364  0.045455  0.000000     24.000000
 -0.113636  0.045455  0.000000     24.000000
 -0.090909  0.045455  0.000000     24.000000
 -0.068182  0.045455  0.000000     24.000000
 -0.045455  0.045455  0.000000     12.000000
  0.068182  0.068182  0.000000      6.000000
  0.090909  0.068182  0.000000     24.000000
  0.113636  0.068182  0.000000     24.000000
  0.136364  0.068182  0.000000     24.000000
  0.159091  0.068182  0.000000     24.000000
  0.181818  0.068182  0.000000     24.000000
  0.204545  0.068182  0.000000     24.000000
  0.227273  0.068182  0.000000     24.000000
  0.250000  0.068182  0.000000     24.000000
  0.272727  0.068182  0.000000     24.000000
  0.295455  0.068182  0.000000     24.000000
  0.318182  0.068182  0.000000     24.000000
  0.340909  0.068182  0.000000     24.000000
  0.363636  0.068182  0.000000     24.000000
  0.386364  0.068182  0.000000     24.000000
  0.409091  0.068182  0.000000     24.000000
  0.431818  0.068182  0.000000     24.000000
  0.454545  0.068182  0.000000     24.000000
  0.477273  0.068182  0.000000     24.000000
  0.500000  0.068182  0.000000     24.000000
 -0.477273  0.068182  0.000000     24.000000
 -0.454545  0.068182  0.000000     24.000000
 -0.431818  0.068182  0.000000     24.000000
 -0.409091  0.068182  0.000000     24.000000
 -0.386364  0.068182  0.000000     24.000000
 -0.363636  0.068182  0.000000     24.000000
 -0.340909  0.068182  0.000000     24.000000
 -0.318182  0.068182  0.000000     24.000000
 -0.295455  0.068182  0.000000     24.000000
 -0.272727  0.068182  0.000000     24.000000
 -0.250000  0.068182  0.000000     24.000000
 -0.227273  0.068182  0.000000     24.000000
 -0.204545  0.068182  0.000000     24.000000
 -0.181818  0.068182  0.000000     24.000000
 -0.159091  0.068182  0.000000     24.000000
 -0.136364  0.068182  0.000000     24.000000
 -0.113636  0.068182  0.000000     24.000000
 -0.090909  0.068182  0.000000     24.000000
 -0.068182  0.068182  0.000000     12.000000
  0.090909  0.090909  0.000000      6.000000
  0.113636  0.090909  0.000000     24.000000
  0.136364  0.090909  0.000000     24.000000
  0.159091  0.090909  0.000000     24.000000
  0.181818  0.090909  0.000000     24.000000
  0.204545  0.090909  0.000000     24.000000
  0.227273  0.090909  0.000000     24.000000
  0.250000  0.090909  0.000000     24.000000
  0.272727  0.090909  0.000000     24.000000
  0.295455  0.090909  0.000000     24.000000
  0.318182  0.090909  0.000000     24.000000
  0.340909  0.090909  0.000000     24.000000
  0.363636  0.090909  0.000000     24.000000
  0.386364  0.090909  0.000000     24.000000
  0.409091  0.090909  0.000000     24.000000
  0.431818  0.090909  0.000000     24.000000
  0.454545  0.090909  0.000000     24.000000
  0.477273  0.090909  0.000000     24.000000
  0.500000  0.090909  0.000000     24.000000
 -0.477273  0.090909  0.000000     24.000000
 -0.454545  0.090909  0.000000     24.000000
 -0.431818  0.090909  0.000000     24.000000
 -0.409091  0.090909  0.000000     24.000000
 -0.386364  0.090909  0.000000     24.000000
 -0.363636  0.090909  0.000000     24.000000
 -0.340909  0.090909  0.000000     24.000000
 -0.318182  0.090909  0.000000     24.000000
 -0.295455  0.090909  0.000000     24.000000
 -0.272727  0.090909  0.000000     24.000000
 -0.250000  0.090909  0.000000     24.000000
 -0.227273  0.090909  0.000000     24.000000
 -0.204545  0.090909  0.000000     24.000000
 -0.181818  0.090909  0.000000     24.000000
 -0.159091  0.090909  0.000000     24.000000
 -0.136364  0.090909  0.000000     24.000000
 -0.113636  0.090909  0.000000     24.000000
 -0.090909  0.090909  0.000000     12.000000
  0.113636  0.113636  0.000000      6.000000
  0.136364  0.113636  0.000000     24.000000
  0.159091  0.113636  0.000000     24.000000
  0.181818  0.113636  0.000000     24.000000
  0.204545  0.113636  0.000000     24.000000
  0.227273  0.113636  0.000000     24.000000
  0.250000  0.113636  0.000000     24.000000
  0.272727  0.113636  0.000000     24.000000
  0.295455  0.113636  0.000000     24.000000
  0.318182  0.113636  0.000000     24.000000
  0.340909  0.113636  0.000000     24.000000
  0.363636  0.113636  0.000000     24.000000
  0.386364  0.113636  0.000000     24.000000
  0.409091  0.113636  0.000000     24.000000
  0.431818  0.113636  0.000000     24.000000
  0.454545  0.113636  0.000000     24.000000
  0.477273  0.113636  0.000000     24.000000
  0.500000  0.113636  0.000000     24.000000
 -0.477273  0.113636  0.000000     24.000000
 -0.454545  0.113636  0.000000     24.000000
 -0.431818  0.113636  0.000000     24.000000
 -0.409091  0.113636  0.000000     24.000000
 -0.386364  0.113636  0.000000     24.000000
 -0.363636  0.113636  0.000000     24.000000
 -0.340909  0.113636  0.000000     24.000000
 -0.318182  0.113636  0.000000     24.000000
 -0.295455  0.113636  0.000000     24.000000
 -0.272727  0.113636  0.000000     24.000000
 -0.250000  0.113636  0.000000     24.000000
 -0.227273  0.113636  0.000000     24.000000
 -0.204545  0.113636  0.000000     24.000000
 -0.181818  0.113636  0.000000     24.000000
 -0.159091  0.113636  0.000000     24.000000
 -0.136364  0.113636  0.000000     24.000000
 -0.113636  0.113636  0.000000     12.000000
  0.136364  0.136364  0.000000      6.000000
  0.159091  0.136364  0.000000     24.000000
  0.181818  0.136364  0.000000     24.000000
  0.204545  0.136364  0.000000     24.000000
  0.227273  0.136364  0.000000     24.000000
  0.250000  0.136364  0.000000     24.000000
  0.272727  0.136364  0.000000     24.000000
  0.295455  0.136364  0.000000     24.000000
  0.318182  0.136364  0.000000     24.000000
  0.340909  0.136364  0.000000     24.000000
  0.363636  0.136364  0.000000     24.000000
  0.386364  0.136364  0.000000     24.000000
  0.409091  0.136364  0.000000     24.000000
  0.431818  0.136364  0.000000     24.000000
  0.454545  0.136364  0.000000     24.000000
  0.477273  0.136364  0.000000     24.000000
  0.500000  0.136364  0.000000     24.000000
 -0.477273  0.136364  0.000000     24.000000
 -0.454545  0.136364  0.000000     24.000000
 -0.431818  0.136364  0.000000     24.000000
 -0.409091  0.136364  0.000000     24.000000
 -0.386364  0.136364  0.000000     24.000000
 -0.363636  0.136364  0.000000     24.000000
 -0.340909  0.136364  0.000000     24.000000
 -0.318182  0.136364  0.000000     24.000000
 -0.295455  0.136364  0.000000     24.000000
 -0.272727  0.136364  0.000000     24.000000
 -0.250000  0.136364  0.000000     24.000000
 -0.227273  0.136364  0.000000     24.000000
 -0.204545  0.136364  0.000000     24.000000
 -0.181818  0.136364  0.000000     24.000000
 -0.159091  0.136364  0.000000     24.000000
 -0.136364  0.136364  0.000000     12.000000
  0.159091  0.159091  0.000000      6.000000
  0.181818  0.159091  0.000000     24.000000
  0.204545  0.159091  0.000000     24.000000
  0.227273  0.159091  0.000000     24.000000
  0.250000  0.159091  0.000000     24.000000
  0.272727  0.159091  0.000000     24.000000
  0.295455  0.159091  0.000000     24.000000
  0.318182  0.159091  0.000000     24.000000
  0.340909  0.159091  0.000000     24.000000
  0.363636  0.159091  0.000000     24.000000
  0.386364  0.159091  0.000000     24.000000
  0.409091  0.159091  0.000000     24.000000
  0.431818  0.159091  0.000000     24.000000
  0.454545  0.159091  0.000000     24.000000
  0.477273  0.159091  0.000000     24.000000
  0.500000  0.159091  0.000000     24.000000
 -0.477273  0.159091  0.000000     24.000000
 -0.454545  0.159091  0.000000     24.000000
 -0.431818  0.159091  0.000000     24.000000
 -0.409091  0.159091  0.000000     24.000000
 -0.386364  0.159091  0.000000     24.000000
 -0.363636  0.159091  0.000000     24.000000
 -0.340909  0.159091  0.000000     24.000000
 -0.318182  0.159091  0.000000     24.000000
 -0.295455  0.159091  0.000000     24.000000
 -0.272727  0.159091  0.000000     24.000000
 -0.250000  0.159091  0.000000     24.000000
 -0.227273  0.159091  0.000000     24.000000
 -0.204545  0.159091  0.000000     24.000000
 -0.181818  0.159091  0.000000     24.000000
 -0.159091  0.159091  0.000000     12.000000
  0.181818  0.181818  0.000000      6.000000
  0.204545  0.181818  0.000000     24.000000
  0.227273  0.181818  0.000000     24.000000
  0.250000  0.181818  0.000000     24.000000
  0.272727  0.181818  0.000000     24.000000
  0.295455  0.181818  0.000000     24.000000
  0.318182  0.181818  0.000000     24.000000
  0.340909  0.181818  0.000000     24.000000
  0.363636  0.181818  0.000000     24.000000
  0.386364  0.181818  0.000000     24.000000
  0.409091  0.181818  0.000000     24.000000
  0.431818  0.181818  0.000000     24.000000
  0.454545  0.181818  0.000000     24.000000
  0.477273  0.181818  0.000000     24.000000
  0.500000  0.181818  0.000000     24.000000
 -0.477273  0.181818  0.000000     24.000000
 -0.454545  0.181818  0.000000     24.000000
 -0.431818  0.181818  0.000000     24.000000
 -0.409091  0.181818  0.000000     24.000000
 -0.386364  0.181818  0.000000     24.000000
 -0.363636  0.181818  0.000000     24.000000
 -0.340909  0.181818  0.000000     24.000000
 -0.318182  0.181818  0.000000     24.000000
 -0.295455  0.181818  0.000000     24.000000
 -0.272727  0.181818  0.000000     24.000000
 -0.250000  0.181818  0.000000     24.000000
 -0.227273  0.181818  0.000000     24.000000
 -0.204545  0.181818  0.000000     24.000000
 -0.181818  0.181818  0.000000     12.000000
  0.204545  0.204545  0.000000      6.000000
  0.227273  0.204545  0.000000     24.000000
  0.250000  0.204545  0.000000     24.000000
  0.272727  0.204545  0.000000     24.000000
  0.295455  0.204545  0.000000     24.000000
  0.318182  0.204545  0.000000     24.000000
  0.340909  0.204545  0.000000     24.000000
  0.363636  0.204545  0.000000     24.000000
  0.386364  0.204545  0.000000     24.000000
  0.409091  0.204545  0.000000     24.000000
  0.431818  0.204545  0.000000     24.000000
  0.454545  0.204545  0.000000     24.000000
  0.477273  0.204545  0.000000     24.000000
  0.500000  0.204545  0.000000     24.000000
 -0.477273  0.204545  0.000000     24.000000
 -0.454545  0.204545  0.000000     24.000000
 -0.431818  0.204545  0.000000     24.000000
 -0.409091  0.204545  0.000000     24.000000
 -0.386364  0.204545  0.000000     24.000000
 -0.363636  0.204545  0.000000     24.000000
 -0.340909  0.204545  0.000000     24.000000
 -0.318182  0.204545  0.000000     24.000000
 -0.295455  0.204545  0.000000     24.000000
 -0.272727  0.204545  0.000000     24.000000
 -0.250000  0.204545  0.000000     24.000000
 -0.227273  0.204545  0.000000     24.000000
 -0.204545  0.204545  0.000000     12.000000
  0.227273  0.227273  0.000000      6.000000
  0.250000  0.227273  0.000000     24.000000
  0.272727  0.227273  0.000000     24.000000
  0.295455  0.227273  0.000000     24.000000
  0.318182  0.227273  0.000000     24.000000
  0.340909  0.227273  0.000000     24.000000
  0.363636  0.227273  0.000000     24.000000
  0.386364  0.227273  0.000000     24.000000
  0.409091  0.227273  0.000000     24.000000
  0.431818  0.227273  0.000000     24.000000
  0.454545  0.227273  0.000000     24.000000
  0.477273  0.227273  0.000000     24.000000
  0.500000  0.227273  0.000000     24.000000
 -0.477273  0.227273  0.000000     24.000000
 -0.454545  0.227273  0.000000     24.000000
 -0.431818  0.227273  0.000000     24.000000
 -0.409091  0.227273  0.000000     24.000000
 -0.386364  0.227273  0.000000     24.000000
 -0.363636  0.227273  0.000000     24.000000
 -0.340909  0.227273  0.000000     24.000000
 -0.318182  0.227273  0.000000     24.000000
 -0.295455  0.227273  0.000000     24.000000
 -0.272727  0.227273  0.000000     24.000000
 -0.250000  0.227273  0.000000     24.000000
 -0.227273  0.227273  0.000000     12.000000
  0.250000  0.250000  0.000000      6.000000
  0.272727  0.250000  0.000000     24.000000
  0.295455  0.250000  0.000000     24.000000
  0.318182  0.250000  0.000000     24.000000
  0.340909  0.250000  0.000000     24.000000
  0.363636  0.250000  0.000000     24.000000
  0.386364  0.250000  0.000000     24.000000
  0.409091  0.250000  0.000000     24.000000
  0.431818  0.250000  0.000000     24.000000
  0.454545  0.250000  0.000000     24.000000
  0.477273  0.250000  0.000000     24.000000
  0.500000  0.250000  0.000000     24.000000
 -0.477273  0.250000  0.000000     24.000000
 -0.454545  0.250000  0.000000     24.000000
 -0.431818  0.250000  0.000000     24.000000
 -0.409091  0.250000  0.000000     24.000000
 -0.386364  0.250000  0.000000     24.000000
 -0.363636  0.250000  0.000000     24.000000
 -0.340909  0.250000  0.000000     24.000000
 -0.318182  0.250000  0.000000     24.000000
 -0.295455  0.250000  0.000000     24.000000
 -0.272727  0.250000  0.000000     24.000000
 -0.250000  0.250000  0.000000     12.000000
  0.272727  0.272727  0.000000      6.000000
  0.295455  0.272727  0.000000     24.000000
  0.318182  0.272727  0.000000     24.000000
  0.340909  0.272727  0.000000     24.000000
  0.363636  0.272727  0.000000     24.000000
  0.386364  0.272727  0.000000     24.000000
  0.409091  0.272727  0.000000     24.000000
  0.431818  0.272727  0.000000     24.000000
  0.454545  0.272727  0.000000     24.000000
  0.477273  0.272727  0.000000     24.000000
  0.500000  0.272727  0.000000     24.000000
 -0.477273  0.272727  0.000000     24.000000
 -0.454545  0.272727  0.000000     24.000000
 -0.431818  0.272727  0.000000     24.000000
 -0.409091  0.272727  0.000000     24.000000
 -0.386364  0.272727  0.000000     24.000000
 -0.363636  0.272727  0.000000     24.000000
 -0.340909  0.272727  0.000000     24.000000
 -0.318182  0.272727  0.000000     24.000000
 -0.295455  0.272727  0.000000     24.000000
 -0.272727  0.272727  0.000000     12.000000
  0.295455  0.295455  0.000000      6.000000
  0.318182  0.295455  0.000000     24.000000
  0.340909  0.295455  0.000000     24.000000
  0.363636  0.295455  0.000000     24.000000
  0.386364  0.295455  0.000000     24.000000
  0.409091  0.295455  0.000000     24.000000
  0.431818  0.295455  0.000000     24.000000
  0.454545  0.295455  0.000000     24.000000
  0.477273  0.295455  0.000000     24.000000
  0.500000  0.295455  0.000000     24.000000
 -0.477273  0.295455  0.000000     24.000000
 -0.454545  0.295455  0.000000     24.000000
 -0.431818  0.295455  0.000000     24.000000
 -0.409091  0.295455  0.000000     24.000000
 -0.386364  0.295455  0.000000     24.000000
 -0.363636  0.295455  0.000000     24.000000
 -0.340909  0.295455  0.000000     24.000000
 -0.318182  0.295455  0.000000     24.000000
 -0.295455  0.295455  0.000000     12.000000
  0.318182  0.318182  0.000000      6.000000
  0.340909  0.318182  0.000000     24.000000
  0.363636  0.318182  0.000000     24.000000
  0.386364  0.318182  0.000000     24.000000
  0.409091  0.318182  0.000000     24.000000
  0.431818  0.318182  0.000000     24.000000
  0.454545  0.318182  0.000000     24.000000
  0.477273  0.318182  0.000000     24.000000
  0.500000  0.318182  0.000000     24.000000
 -0.477273  0.318182  0.000000     24.000000
 -0.454545  0.318182  0.000000     24.000000
 -0.431818  0.318182  0.000000     24.000000
 -0.409091  0.318182  0.000000     24.000000
 -0.386364  0.318182  0.000000     24.000000
 -0.363636  0.318182  0.000000     24.000000
 -0.340909  0.318182  0.000000     24.000000
 -0.318182  0.318182  0.000000     12.000000
  0.340909  0.340909  0.000000      6.000000
  0.363636  0.340909  0.000000     24.000000
  0.386364  0.340909  0.000000     24.000000
  0.409091  0.340909  0.000000     24.000000
  0.431818  0.340909  0.000000     24.000000
  0.454545  0.340909  0.000000     24.000000
  0.477273  0.340909  0.000000     24.000000
  0.500000  0.340909  0.000000     24.000000
 -0.477273  0.340909  0.000000     24.000000
 -0.454545  0.340909  0.000000     24.000000
 -0.431818  0.340909  0.000000     24.000000
 -0.409091  0.340909  0.000000     24.000000
 -0.386364  0.340909  0.000000     24.000000
 -0.363636  0.340909  0.000000     24.000000
 -0.340909  0.340909  0.000000     12.000000
  0.363636  0.363636  0.000000      6.000000
  0.386364  0.363636  0.000000     24.000000
  0.409091  0.363636  0.000000     24.000000
  0.431818  0.363636  0.000000     24.000000
  0.454545  0.363636  0.000000     24.000000
  0.477273  0.363636  0.000000     24.000000
  0.500000  0.363636  0.000000     24.000000
 -0.477273  0.363636  0.000000     24.000000
 -0.454545  0.363636  0.000000     24.000000
 -0.431818  0.363636  0.000000     24.000000
 -0.409091  0.363636  0.000000     24.000000
 -0.386364  0.363636  0.000000     24.000000
 -0.363636  0.363636  0.000000     12.000000
  0.386364  0.386364  0.000000      6.000000
  0.409091  0.386364  0.000000     24.000000
  0.431818  0.386364  0.000000     24.000000
  0.454545  0.386364  0.000000     24.000000
  0.477273  0.386364  0.000000     24.000000
  0.500000  0.386364  0.000000     24.000000
 -0.477273  0.386364  0.000000     24.000000
 -0.454545  0.386364  0.000000     24.000000
 -0.431818  0.386364  0.000000     24.000000
 -0.409091  0.386364  0.000000     24.000000
 -0.386364  0.386364  0.000000     12.000000
  0.409091  0.409091  0.000000      6.000000
  0.431818  0.409091  0.000000     24.000000
  0.454545  0.409091  0.000000     24.000000
  0.477273  0.409091  0.000000     24.000000
  0.500000  0.409091  0.000000     24.000000
 -0.477273  0.409091  0.000000     24.000000
 -0.454545  0.409091  0.000000     24.000000
 -0.431818  0.409091  0.000000     24.000000
 -0.409091  0.409091  0.000000     12.000000
  0.431818  0.431818  0.000000      6.000000
  0.454545  0.431818  0.000000     24.000000
  0.477273  0.431818  0.000000     24.000000
  0.500000  0.431818  0.000000     24.000000
 -0.477273  0.431818  0.000000     24.000000
 -0.454545  0.431818  0.000000     24.000000
 -0.431818  0.431818  0.000000     12.000000
  0.454545  0.454545  0.000000      6.000000
  0.477273  0.454545  0.000000     24.000000
  0.500000  0.454545  0.000000     24.000000
 -0.477273  0.454545  0.000000     24.000000
 -0.454545  0.454545  0.000000     12.000000
  0.477273  0.477273  0.000000      6.000000
  0.500000  0.477273  0.000000     24.000000
 -0.477273  0.477273  0.000000     12.000000
  0.500000  0.500000  0.000000      3.000000
  0.068182  0.045455  0.022727     24.000000
  0.090909  0.045455  0.022727     48.000000
  0.113636  0.045455  0.022727     48.000000
  0.136364  0.045455  0.022727     48.000000
  0.159091  0.045455  0.022727     48.000000
  0.181818  0.045455  0.022727     48.000000
  0.204545  0.045455  0.022727     48.000000
  0.227273  0.045455  0.022727     48.000000
  0.250000  0.045455  0.022727     48.000000
  0.272727  0.045455  0.022727     48.000000
  0.295455  0.045455  0.022727     48.000000
  0.318182  0.045455  0.022727     48.000000
  0.340909  0.045455  0.022727     48.000000
  0.363636  0.045455  0.022727     48.000000
  0.386364  0.045455  0.022727     48.000000
  0.409091  0.045455  0.022727     48.000000
  0.431818  0.045455  0.022727     48.000000
  0.454545  0.045455  0.022727     48.000000
  0.477273  0.045455  0.022727     48.000000
  0.500000  0.045455  0.022727     48.000000
 -0.477273  0.045455  0.022727     24.000000
  0.090909  0.068182  0.022727     24.000000
  0.113636  0.068182  0.022727     48.000000
  0.136364  0.068182  0.022727     48.000000
  0.159091  0.068182  0.022727     48.000000
  0.181818  0.068182  0.022727     48.000000
  0.204545  0.068182  0.022727     48.000000
  0.227273  0.068182  0.022727     48.000000
  0.250000  0.068182  0.022727     48.000000
  0.272727  0.068182  0.022727     48.000000
  0.295455  0.068182  0.022727     48.000000
  0.318182  0.068182  0.022727     48.000000
  0.340909  0.068182  0.022727     48.000000
  0.363636  0.068182  0.022727     48.000000
  0.386364  0.068182  0.022727     48.000000
  0.409091  0.068182  0.022727     48.000000
  0.431818  0.068182  0.022727     48.000000
  0.454545  0.068182  0.022727     48.000000
  0.477273  0.068182  0.022727     48.000000
  0.500000  0.068182  0.022727     48.000000
 -0.477273  0.068182  0.022727     48.000000
 -0.454545  0.068182  0.022727     48.000000
 -0.431818  0.068182  0.022727     48.000000
 -0.409091  0.068182  0.022727     48.000000
 -0.386364  0.068182  0.022727     48.000000
 -0.363636  0.068182  0.022727     48.000000
 -0.340909  0.068182  0.022727     48.000000
 -0.318182  0.068182  0.022727     48.000000
 -0.295455  0.068182  0.022727     48.000000
 -0.272727  0.068182  0.022727     48.000000
 -0.250000  0.068182  0.022727     48.000000
 -0.227273  0.068182  0.022727     48.000000
 -0.204545  0.068182  0.022727     48.000000
 -0.181818  0.068182  0.022727     48.000000
 -0.159091  0.068182  0.022727     48.000000
 -0.136364  0.068182  0.022727     48.000000
 -0.113636  0.068182  0.022727     48.000000
 -0.090909  0.068182  0.022727     48.000000
 -0.068182  0.068182  0.022727     48.000000
 -0.045455  0.068182  0.022727     24.000000
  0.113636  0.090909  0.022727     24.000000
  0.136364  0.090909  0.022727     48.000000
  0.159091  0.090909  0.022727     48.000000
  0.181818  0.090909  0.022727     48.000000
  0.204545  0.090909  0.022727     48.000000
  0.227273  0.090909  0.022727     48.000000
  0.250000  0.090909  0.022727     48.000000
  0.272727  0.090909  0.022727     48.000000
  0.295455  0.090909  0.022727     48.000000
  0.318182  0.090909  0.022727     48.000000
  0.340909  0.090909  0.022727     48.000000
  0.363636  0.090909  0.022727     48.000000
  0.386364  0.090909  0.022727     48.000000
  0.409091  0.090909  0.022727     48.000000
  0.431818  0.090909  0.022727     48.000000
  0.454545  0.090909  0.022727     48.000000
  0.477273  0.090909  0.022727     48.000000
  0.500000  0.090909  0.022727     48.000000
 -0.477273  0.090909  0.022727     48.000000
 -0.454545  0.090909  0.022727     48.000000
 -0.431818  0.090909  0.022727     48.000000
 -0.409091  0.090909  0.022727     48.000000
 -0.386364  0.090909  0.022727     48.000000
 -0.363636  0.090909  0.022727     48.000000
 -0.340909  0.090909  0.022727     48.000000
 -0.318182  0.090909  0.022727     48.000000
 -0.295455  0.090909  0.022727     48.000000
 -0.272727  0.090909  0.022727     48.000000
 -0.250000  0.090909  0.022727     48.000000
 -0.227273  0.090909  0.022727     48.000000
 -0.204545  0.090909  0.022727     48.000000
 -0.181818  0.090909  0.022727     48.000000
 -0.159091  0.090909  0.022727     48.000000
 -0.136364  0.090909  0.022727     48.000000
 -0.113636  0.090909  0.022727     48.000000
 -0.090909  0.090909  0.022727     48.000000
 -0.068182  0.090909  0.022727     24.000000
  0.136364  0.113636  0.022727     24.000000
  0.159091  0.113636  0.022727     48.000000
  0.181818  0.113636  0.022727     48.000000
  0.204545  0.113636  0.022727     48.000000
  0.227273  0.113636  0.022727     48.000000
  0.250000  0.113636  0.022727     48.000000
  0.272727  0.113636  0.022727     48.000000
  0.295455  0.113636  0.022727     48.000000
  0.318182  0.113636  0.022727     48.000000
  0.340909  0.113636  0.022727     48.000000
  0.363636  0.113636  0.022727     48.000000
  0.386364  0.113636  0.022727     48.000000
  0.409091  0.113636  0.022727     48.000000
  0.431818  0.113636  0.022727     48.000000
  0.454545  0.113636  0.022727     48.000000
  0.477273  0.113636  0.022727     48.000000
  0.500000  0.113636  0.022727     48.000000
 -0.477273  0.113636  0.022727     48.000000
 -0.454545  0.113636  0.022727     48.000000
 -0.431818  0.113636  0.022727     48.000000
 -0.409091  0.113636  0.022727     48.000000
 -0.386364  0.113636  0.022727     48.000000
 -0.363636  0.113636  0.022727     48.000000
 -0.340909  0.113636  0.022727     48.000000
 -0.318182  0.113636  0.022727     48.000000
 -0.295455  0.113636  0.022727     48.000000
 -0.272727  0.113636  0.022727     48.000000
 -0.250000  0.113636  0.022727     48.000000
 -0.227273  0.113636  0.022727     48.000000
 -0.204545  0.113636  0.022727     48.000000
 -0.181818  0.113636  0.022727     48.000000
 -0.159091  0.113636  0.022727     48.000000
 -0.136364  0.113636  0.022727     48.000000
 -0.113636  0.113636  0.022727     48.000000
 -0.090909  0.113636  0.022727     24.000000
  0.159091  0.136364  0.022727     24.000000
  0.181818  0.136364  0.022727     48.000000
  0.204545  0.136364  0.022727     48.000000
  0.227273  0.136364  0.022727     48.000000
  0.250000  0.136364  0.022727     48.000000
  0.272727  0.136364  0.022727     48.000000
  0.295455  0.136364  0.022727     48.000000
  0.318182  0.136364  0.022727     48.000000
  0.340909  0.136364  0.022727     48.000000
  0.363636  0.136364  0.022727     48.000000
  0.386364  0.136364  0.022727     48.000000
  0.409091  0.136364  0.022727     48.000000
  0.431818  0.136364  0.022727     48.000000
  0.454545  0.136364  0.022727     48.000000
  0.477273  0.136364  0.022727     48.000000
  0.500000  0.136364  0.022727     48.000000
 -0.477273  0.136364  0.022727     48.000000
 -0.454545  0.136364  0.022727     48.000000
 -0.431818  0.136364  0.022727     48.000000
 -0.409091  0.136364  0.022727     48.000000
 -0.386364  0.136364  0.022727     48.000000
 -0.363636  0.136364  0.022727     48.000000
 -0.340909  0.136364  0.022727     48.000000
 -0.318182  0.136364  0.022727     48.000000
 -0.295455  0.136364  0.022727     48.000000
 -0.272727  0.136364  0.022727     48.000000
 -0.250000  0.136364  0.022727     48.000000
 -0.227273  0.136364  0.022727     48.000000
 -0.204545  0.136364  0.022727     48.000000
 -0.181818  0.136364  0.022727     48.000000
 -0.159091  0.136364  0.022727     48.000000
 -0.136364  0.136364  0.022727     48.000000
 -0.113636  0.136364  0.022727     24.000000
  0.181818  0.159091  0.022727     24.000000
  0.204545  0.159091  0.022727     48.000000
  0.227273  0.159091  0.022727     48.000000
  0.250000  0.159091  0.022727     48.000000
  0.272727  0.159091  0.022727     48.000000
  0.295455  0.159091  0.022727     48.000000
  0.318182  0.159091  0.022727     48.000000
  0.340909  0.159091  0.022727     48.000000
  0.363636  0.159091  0.022727     48.000000
  0.386364  0.159091  0.022727     48.000000
  0.409091  0.159091  0.022727     48.000000
  0.431818  0.159091  0.022727     48.000000
  0.454545  0.159091  0.022727     48.000000
  0.477273  0.159091  0.022727     48.000000
  0.500000  0.159091  0.022727     48.000000
 -0.477273  0.159091  0.022727     48.000000
 -0.454545  0.159091  0.022727     48.000000
 -0.431818  0.159091  0.022727     48.000000
 -0.409091  0.159091  0.022727     48.000000
 -0.386364  0.159091  0.022727     48.000000
 -0.363636  0.159091  0.022727     48.000000
 -0.340909  0.159091  0.022727     48.000000
 -0.318182  0.159091  0.022727     48.000000
 -0.295455  0.159091  0.022727     48.000000
 -0.272727  0.159091  0.022727     48.000000
 -0.250000  0.159091  0.022727     48.000000
 -0.227273  0.159091  0.022727     48.000000
 -0.204545  0.159091  0.022727     48.000000
 -0.181818  0.159091  0.022727     48.000000
 -0.159091  0.159091  0.022727     48.000000
 -0.136364  0.159091  0.022727     24.000000
  0.204545  0.181818  0.022727     24.000000
  0.227273  0.181818  0.022727     48.000000
  0.250000  0.181818  0.022727     48.000000
  0.272727  0.181818  0.022727     48.000000
  0.295455  0.181818  0.022727     48.000000
  0.318182  0.181818  0.022727     48.000000
  0.340909  0.181818  0.022727     48.000000
  0.363636  0.181818  0.022727     48.000000
  0.386364  0.181818  0.022727     48.000000
  0.409091  0.181818  0.022727     48.000000
  0.431818  0.181818  0.022727     48.000000
  0.454545  0.181818  0.022727     48.000000
  0.477273  0.181818  0.022727     48.000000
  0.500000  0.181818  0.022727     48.000000
 -0.477273  0.181818  0.022727     48.000000
 -0.454545  0.181818  0.022727     48.000000
 -0.431818  0.181818  0.022727     48.000000
 -0.409091  0.181818  0.022727     48.000000
 -0.386364  0.181818  0.022727     48.000000
 -0.363636  0.181818  0.022727     48.000000
 -0.340909  0.181818  0.022727     48.000000
 -0.318182  0.181818  0.022727     48.000000
 -0.295455  0.181818  0.022727     48.000000
 -0.272727  0.181818  0.022727     48.000000
 -0.250000  0.181818  0.022727     48.000000
 -0.227273  0.181818  0.022727     48.000000
 -0.204545  0.181818  0.022727     48.000000
 -0.181818  0.181818  0.022727     48.000000
 -0.159091  0.181818  0.022727     24.000000
  0.227273  0.204545  0.022727     24.000000
  0.250000  0.204545  0.022727     48.000000
  0.272727  0.204545  0.022727     48.000000
  0.295455  0.204545  0.022727     48.000000
  0.318182  0.204545  0.022727     48.000000
  0.340909  0.204545  0.022727     48.000000
  0.363636  0.204545  0.022727     48.000000
  0.386364  0.204545  0.022727     48.000000
  0.409091  0.204545  0.022727     48.000000
  0.431818  0.204545  0.022727     48.000000
  0.454545  0.204545  0.022727     48.000000
  0.477273  0.204545  0.022727     48.000000
  0.500000  0.204545  0.022727     48.000000
 -0.477273  0.204545  0.022727     48.000000
 -0.454545  0.204545  0.022727     48.000000
 -0.431818  0.204545  0.022727     48.000000
 -0.409091  0.204545  0.022727     48.000000
 -0.386364  0.204545  0.022727     48.000000
 -0.363636  0.204545  0.022727     48.000000
 -0.340909  0.204545  0.022727     48.000000
 -0.318182  0.204545  0.022727     48.000000
 -0.295455  0.204545  0.022727     48.000000
 -0.272727  0.204545  0.022727     48.000000
 -0.250000  0.204545  0.022727     48.000000
 -0.227273  0.204545  0.022727     48.000000
 -0.204545  0.204545  0.022727     48.000000
 -0.181818  0.204545  0.022727     24.000000
  0.250000  0.227273  0.022727     24.000000
  0.272727  0.227273  0.022727     48.000000
  0.295455  0.227273  0.022727     48.000000
  0.318182  0.227273  0.022727     48.000000
  0.340909  0.227273  0.022727     48.000000
  0.363636  0.227273  0.022727     48.000000
  0.386364  0.227273  0.022727     48.000000
  0.409091  0.227273  0.022727     48.000000
  0.431818  0.227273  0.022727     48.000000
  0.454545  0.227273  0.022727     48.000000
  0.477273  0.227273  0.022727     48.000000
  0.500000  0.227273  0.022727     48.000000
 -0.477273  0.227273  0.022727     48.000000
 -0.454545  0.227273  0.022727     48.000000
 -0.431818  0.227273  0.022727     48.000000
 -0.409091  0.227273  0.022727     48.000000
 -0.386364  0.227273  0.022727     48.000000
 -0.363636  0.227273  0.022727     48.000000
 -0.340909  0.227273  0.022727     48.000000
 -0.318182  0.227273  0.022727     48.000000
 -0.295455  0.227273  0.022727     48.000000
 -0.272727  0.227273  0.022727     48.000000
 -0.250000  0.227273  0.022727     48.000000
 -0.227273  0.227273  0.022727     48.000000
 -0.204545  0.227273  0.022727     24.000000
  0.272727  0.250000  0.022727     24.000000
  0.295455  0.250000  0.022727     48.000000
  0.318182  0.250000  0.022727     48.000000
  0.340909  0.250000  0.022727     48.000000
  0.363636  0.250000  0.022727     48.000000
  0.386364  0.250000  0.022727     48.000000
  0.409091  0.250000  0.022727     48.000000
  0.431818  0.250000  0.022727     48.000000
  0.454545  0.250000  0.022727     48.000000
  0.477273  0.250000  0.022727     48.000000
  0.500000  0.250000  0.022727     48.000000
 -0.477273  0.250000  0.022727     48.000000
 -0.454545  0.250000  0.022727     48.000000
 -0.431818  0.250000  0.022727     48.000000
 -0.409091  0.250000  0.022727     48.000000
 -0.386364  0.250000  0.022727     48.000000
 -0.363636  0.250000  0.022727     48.000000
 -0.340909  0.250000  0.022727     48.000000
 -0.318182  0.250000  0.022727     48.000000
 -0.295455  0.250000  0.022727     48.000000
 -0.272727  0.250000  0.022727     48.000000
 -0.250000  0.250000  0.022727     48.000000
 -0.227273  0.250000  0.022727     24.000000
  0.295455  0.272727  0.022727     24.000000
  0.318182  0.272727  0.022727     48.000000
  0.340909  0.272727  0.022727     48.000000
  0.363636  0.272727  0.022727     48.000000
  0.386364  0.272727  0.022727     48.000000
  0.409091  0.272727  0.022727     48.000000
  0.431818  0.272727  0.022727     48.000000
  0.454545  0.272727  0.022727     48.000000
  0.477273  0.272727  0.022727     48.000000
  0.500000  0.272727  0.022727     48.000000
 -0.477273  0.272727  0.022727     48.000000
 -0.454545  0.272727  0.022727     48.000000
 -0.431818  0.272727  0.022727     48.000000
 -0.409091  0.272727  0.022727     48.000000
 -0.386364  0.272727  0.022727     48.000000
 -0.363636  0.272727  0.022727     48.000000
 -0.340909  0.272727  0.022727     48.000000
 -0.318182  0.272727  0.022727     48.000000
 -0.295455  0.272727  0.022727     48.000000
 -0.272727  0.272727  0.022727     48.000000
 -0.250000  0.272727  0.022727     24.000000
  0.318182  0.295455  0.022727     24.000000
  0.340909  0.295455  0.022727     48.000000
  0.363636  0.295455  0.022727     48.000000
  0.386364  0.295455  0.022727     48.000000
  0.409091  0.295455  0.022727     48.000000
  0.431818  0.295455  0.022727     48.000000
  0.454545  0.295455  0.022727     48.000000
  0.477273  0.295455  0.022727     48.000000
  0.500000  0.295455  0.022727     48.000000
 -0.477273  0.295455  0.022727     48.000000
 -0.454545  0.295455  0.022727     48.000000
 -0.431818  0.295455  0.022727     48.000000
 -0.409091  0.295455  0.022727     48.000000
 -0.386364  0.295455  0.022727     48.000000
 -0.363636  0.295455  0.022727     48.000000
 -0.340909  0.295455  0.022727     48.000000
 -0.318182  0.295455  0.022727     48.000000
 -0.295455  0.295455  0.022727     48.000000
 -0.272727  0.295455  0.022727     24.000000
  0.340909  0.318182  0.022727     24.000000
  0.363636  0.318182  0.022727     48.000000
  0.386364  0.318182  0.022727     48.000000
  0.409091  0.318182  0.022727     48.000000
  0.431818  0.318182  0.022727     48.000000
  0.454545  0.318182  0.022727     48.000000
  0.477273  0.318182  0.022727     48.000000
  0.500000  0.318182  0.022727     48.000000
 -0.477273  0.318182  0.022727     48.000000
 -0.454545  0.318182  0.022727     48.000000
 -0.431818  0.318182  0.022727     48.000000
 -0.409091  0.318182  0.022727     48.000000
 -0.386364  0.318182  0.022727     48.000000
 -0.363636  0.318182  0.022727     48.000000
 -0.340909  0.318182  0.022727     48.000000
 -0.318182  0.318182  0.022727     48.000000
 -0.295455  0.318182  0.022727     24.000000
  0.363636  0.340909  0.022727     24.000000
  0.386364  0.340909  0.022727     48.000000
  0.409091  0.340909  0.022727     48.000000
  0.431818  0.340909  0.022727     48.000000
  0.454545  0.340909  0.022727     48.000000
  0.477273  0.340909  0.022727     48.000000
  0.500000  0.340909  0.022727     48.000000
 -0.477273  0.340909  0.022727     48.000000
 -0.454545  0.340909  0.022727     48.000000
 -0.431818  0.340909  0.022727     48.000000
 -0.409091  0.340909  0.022727     48.000000
 -0.386364  0.340909  0.022727     48.000000
 -0.363636  0.340909  0.022727     48.000000
 -0.340909  0.340909  0.022727     48.000000
 -0.318182  0.340909  0.022727     24.000000
  0.386364  0.363636  0.022727     24.000000
  0.409091  0.363636  0.022727     48.000000
  0.431818  0.363636  0.022727     48.000000
  0.454545  0.363636  0.022727     48.000000
  0.477273  0.363636  0.022727     48.000000
  0.500000  0.363636  0.022727     48.000000
 -0.477273  0.363636  0.022727     48.000000
 -0.454545  0.363636  0.022727     48.000000
 -0.431818  0.363636  0.022727     48.000000
 -0.409091  0.363636  0.022727     48.000000
 -0.386364  0.363636  0.022727     48.000000
 -0.363636  0.363636  0.022727     48.000000
 -0.340909  0.363636  0.022727     24.000000
  0.409091  0.386364  0.022727     24.000000
  0.431818  0.386364  0.022727     48.000000
  0.454545  0.386364  0.022727     48.000000
  0.477273  0.386364  0.022727     48.000000
  0.500000  0.386364  0.022727     48.000000
 -0.477273  0.386364  0.022727     48.000000
 -0.454545  0.386364  0.022727     48.000000
 -0.431818  0.386364  0.022727     48.000000
 -0.409091  0.386364  0.022727     48.000000
 -0.386364  0.386364  0.022727     48.000000
 -0.363636  0.386364  0.022727     24.000000
  0.431818  0.409091  0.022727     24.000000
  0.454545  0.409091  0.022727     48.000000
  0.477273  0.409091  0.022727     48.000000
  0.500000  0.409091  0.022727     48.000000
 -0.477273  0.409091  0.022727     48.000000
 -0.454545  0.409091  0.022727     48.000000
 -0.431818  0.409091  0.022727     48.000000
 -0.409091  0.409091  0.022727     48.000000
 -0.386364  0.409091  0.022727     24.000000
  0.454545  0.431818  0.022727     24.000000
  0.477273  0.431818  0.022727     48.000000
  0.500000  0.431818  0.022727     48.000000
 -0.477273  0.431818  0.022727     48.000000
 -0.454545  0.431818  0.022727     48.000000
 -0.431818  0.431818  0.022727     48.000000
 -0.409091  0.431818  0.022727     24.000000
  0.477273  0.454545  0.022727     24.000000
  0.500000  0.454545  0.022727     48.000000
 -0.477273  0.454545  0.022727     48.000000
 -0.454545  0.454545  0.022727     48.000000
 -0.431818  0.454545  0.022727     24.000000
  0.500000  0.477273  0.022727     24.000000
 -0.477273  0.477273  0.022727     48.000000
 -0.454545  0.477273  0.022727     24.000000
 -0.477273  0.500000  0.022727     12.000000
  0.136364  0.090909  0.045455     24.000000
  0.159091  0.090909  0.045455     48.000000
  0.181818  0.090909  0.045455     48.000000
  0.204545  0.090909  0.045455     48.000000
  0.227273  0.090909  0.045455     48.000000
  0.250000  0.090909  0.045455     48.000000
  0.272727  0.090909  0.045455     48.000000
  0.295455  0.090909  0.045455     48.000000
  0.318182  0.090909  0.045455     48.000000
  0.340909  0.090909  0.045455     48.000000
  0.363636  0.090909  0.045455     48.000000
  0.386364  0.090909  0.045455     48.000000
  0.409091  0.090909  0.045455     48.000000
  0.431818  0.090909  0.045455     48.000000
  0.454545  0.090909  0.045455     48.000000
  0.477273  0.090909  0.045455     48.000000
  0.500000  0.090909  0.045455     48.000000
 -0.477273  0.090909  0.045455     48.000000
 -0.454545  0.090909  0.045455     24.000000
  0.159091  0.113636  0.045455     24.000000
  0.181818  0.113636  0.045455     48.000000
  0.204545  0.113636  0.045455     48.000000
  0.227273  0.113636  0.045455     48.000000
  0.250000  0.113636  0.045455     48.000000
  0.272727  0.113636  0.045455     48.000000
  0.295455  0.113636  0.045455     48.000000
  0.318182  0.113636  0.045455     48.000000
  0.340909  0.113636  0.045455     48.000000
  0.363636  0.113636  0.045455     48.000000
  0.386364  0.113636  0.045455     48.000000
  0.409091  0.113636  0.045455     48.000000
  0.431818  0.113636  0.045455     48.000000
  0.454545  0.113636  0.045455     48.000000
  0.477273  0.113636  0.045455     48.000000
  0.500000  0.113636  0.045455     48.000000
 -0.477273  0.113636  0.045455     48.000000
 -0.454545  0.113636  0.045455     48.000000
 -0.431818  0.113636  0.045455     48.000000
 -0.409091  0.113636  0.045455     48.000000
 -0.386364  0.113636  0.045455     48.000000
 -0.363636  0.113636  0.045455     48.000000
 -0.340909  0.113636  0.045455     48.000000
 -0.318182  0.113636  0.045455     48.000000
 -0.295455  0.113636  0.045455     48.000000
 -0.272727  0.113636  0.045455     48.000000
 -0.250000  0.113636  0.045455     48.000000
 -0.227273  0.113636  0.045455     48.000000
 -0.204545  0.113636  0.045455     48.000000
 -0.181818  0.113636  0.045455     48.000000
 -0.159091  0.113636  0.045455     48.000000
 -0.136364  0.113636  0.045455     48.000000
 -0.113636  0.113636  0.045455     48.000000
 -0.090909  0.113636  0.045455     48.000000
 -0.068182  0.113636  0.045455     24.000000
  0.181818  0.136364  0.045455     24.000000
  0.204545  0.136364  0.045455     48.000000
  0.227273  0.136364  0.045455     48.000000
  0.250000  0.136364  0.045455     48.000000
  0.272727  0.136364  0.045455     48.000000
  0.295455  0.136364  0.045455     48.000000
  0.318182  0.136364  0.045455     48.000000
  0.340909  0.136364  0.045455     48.000000
  0.363636  0.136364  0.045455     48.000000
  0.386364  0.136364  0.045455     48.000000
  0.409091  0.136364  0.045455     48.000000
  0.431818  0.136364  0.045455     48.000000
  0.454545  0.136364  0.045455     48.000000
  0.477273  0.136364  0.045455     48.000000
  0.500000  0.136364  0.045455     48.000000
 -0.477273  0.136364  0.045455     48.000000
 -0.454545  0.136364  0.045455     48.000000
 -0.431818  0.136364  0.045455     48.000000
 -0.409091  0.136364  0.045455     48.000000
 -0.386364  0.136364  0.045455     48.000000
 -0.363636  0.136364  0.045455     48.000000
 -0.340909  0.136364  0.045455     48.000000
 -0.318182  0.136364  0.045455     48.000000
 -0.295455  0.136364  0.045455     48.000000
 -0.272727  0.136364  0.045455     48.000000
 -0.250000  0.136364  0.045455     48.000000
 -0.227273  0.136364  0.045455     48.000000
 -0.204545  0.136364  0.045455     48.000000
 -0.181818  0.136364  0.045455     48.000000
 -0.159091  0.136364  0.045455     48.000000
 -0.136364  0.136364  0.045455     48.000000
 -0.113636  0.136364  0.045455     48.000000
 -0.090909  0.136364  0.045455     24.000000
  0.204545  0.159091  0.045455     24.000000
  0.227273  0.159091  0.045455     48.000000
  0.250000  0.159091  0.045455     48.000000
  0.272727  0.159091  0.045455     48.000000
  0.295455  0.159091  0.045455     48.000000
  0.318182  0.159091  0.045455     48.000000
  0.340909  0.159091  0.045455     48.000000
  0.363636  0.159091  0.045455     48.000000
  0.386364  0.159091  0.045455     48.000000
  0.409091  0.159091  0.045455     48.000000
  0.431818  0.159091  0.045455     48.000000
  0.454545  0.159091  0.045455     48.000000
  0.477273  0.159091  0.045455     48.000000
  0.500000  0.159091  0.045455     48.000000
 -0.477273  0.159091  0.045455     48.000000
 -0.454545  0.159091  0.045455     48.000000
 -0.431818  0.159091  0.045455     48.000000
 -0.409091  0.159091  0.045455     48.000000
 -0.386364  0.159091  0.045455     48.000000
 -0.363636  0.159091  0.045455     48.000000
 -0.340909  0.159091  0.045455     48.000000
 -0.318182  0.159091  0.045455     48.000000
 -0.295455  0.159091  0.045455     48.000000
 -0.272727  0.159091  0.045455     48.000000
 -0.250000  0.159091  0.045455     48.000000
 -0.227273  0.159091  0.045455     48.000000
 -0.204545  0.159091  0.045455     48.000000
 -0.181818  0.159091  0.045455     48.000000
 -0.159091  0.159091  0.045455     48.000000
 -0.136364  0.159091  0.045455     48.000000
 -0.113636  0.159091  0.045455     24.000000
  0.227273  0.181818  0.045455     24.000000
  0.250000  0.181818  0.045455     48.000000
  0.272727  0.181818  0.045455     48.000000
  0.295455  0.181818  0.045455     48.000000
  0.318182  0.181818  0.045455     48.000000
  0.340909  0.181818  0.045455     48.000000
  0.363636  0.181818  0.045455     48.000000
  0.386364  0.181818  0.045455     48.000000
  0.409091  0.181818  0.045455     48.000000
  0.431818  0.181818  0.045455     48.000000
  0.454545  0.181818  0.045455     48.000000
  0.477273  0.181818  0.045455     48.000000
  0.500000  0.181818  0.045455     48.000000
 -0.477273  0.181818  0.045455     48.000000
 -0.454545  0.181818  0.045455     48.000000
 -0.431818  0.181818  0.045455     48.000000
 -0.409091  0.181818  0.045455     48.000000
 -0.386364  0.181818  0.045455     48.000000
 -0.363636  0.181818  0.045455     48.000000
 -0.340909  0.181818  0.045455     48.000000
 -0.318182  0.181818  0.045455     48.000000
 -0.295455  0.181818  0.045455     48.000000
 -0.272727  0.181818  0.045455     48.000000
 -0.250000  0.181818  0.045455     48.000000
 -0.227273  0.181818  0.045455     48.000000
 -0.204545  0.181818  0.045455     48.000000
 -0.181818  0.181818  0.045455     48.000000
 -0.159091  0.181818  0.045455     48.000000
 -0.136364  0.181818  0.045455     24.000000
  0.250000  0.204545  0.045455     24.000000
  0.272727  0.204545  0.045455     48.000000
  0.295455  0.204545  0.045455     48.000000
  0.318182  0.204545  0.045455     48.000000
  0.340909  0.204545  0.045455     48.000000
  0.363636  0.204545  0.045455     48.000000
  0.386364  0.204545  0.045455     48.000000
  0.409091  0.204545  0.045455     48.000000
  0.431818  0.204545  0.045455     48.000000
  0.454545  0.204545  0.045455     48.000000
  0.477273  0.204545  0.045455     48.000000
  0.500000  0.204545  0.045455     48.000000
 -0.477273  0.204545  0.045455     48.000000
 -0.454545  0.204545  0.045455     48.000000
 -0.431818  0.204545  0.045455     48.000000
 -0.409091  0.204545  0.045455     48.000000
 -0.386364  0.204545  0.045455     48.000000
 -0.363636  0.204545  0.045455     48.000000
 -0.340909  0.204545  0.045455     48.000000
 -0.318182  0.204545  0.045455     48.000000
 -0.295455  0.204545  0.045455     48.000000
 -0.272727  0.204545  0.045455     48.000000
 -0.250000  0.204545  0.045455     48.000000
 -0.227273  0.204545  0.045455     48.000000
 -0.204545  0.204545  0.045455     48.000000
 -0.181818  0.204545  0.045455     48.000000
 -0.159091  0.204545  0.045455     24.000000
  0.272727  0.227273  0.045455     24.000000
  0.295455  0.227273  0.045455     48.000000
  0.318182  0.227273  0.045455     48.000000
  0.340909  0.227273  0.045455     48.000000
  0.363636  0.227273  0.045455     48.000000
  0.386364  0.227273  0.045455     48.000000
  0.409091  0.227273  0.045455     48.000000
  0.431818  0.227273  0.045455     48.000000
  0.454545  0.227273  0.045455     48.000000
  0.477273  0.227273  0.045455     48.000000
  0.500000  0.227273  0.045455     48.000000
 -0.477273  0.227273  0.045455     48.000000
 -0.454545  0.227273  0.045455     48.000000
 -0.431818  0.227273  0.045455     48.000000
 -0.409091  0.227273  0.045455     48.000000
 -0.386364  0.227273  0.045455     48.000000
 -0.363636  0.227273  0.045455     48.000000
 -0.340909  0.227273  0.045455     48.000000
 -0.318182  0.227273  0.045455     48.000000
 -0.295455  0.227273  0.045455     48.000000
 -0.272727  0.227273  0.045455     48.000000
 -0.250000  0.227273  0.045455     48.000000
 -0.227273  0.227273  0.045455     48.000000
 -0.204545  0.227273  0.045455     48.000000
 -0.181818  0.227273  0.045455     24.000000
  0.295455  0.250000  0.045455     24.000000
  0.318182  0.250000  0.045455     48.000000
  0.340909  0.250000  0.045455     48.000000
  0.363636  0.250000  0.045455     48.000000
  0.386364  0.250000  0.045455     48.000000
  0.409091  0.250000  0.045455     48.000000
  0.431818  0.250000  0.045455     48.000000
  0.454545  0.250000  0.045455     48.000000
  0.477273  0.250000  0.045455     48.000000
  0.500000  0.250000  0.045455     48.000000
 -0.477273  0.250000  0.045455     48.000000
 -0.454545  0.250000  0.045455     48.000000
 -0.431818  0.250000  0.045455     48.000000
 -0.409091  0.250000  0.045455     48.000000
 -0.386364  0.250000  0.045455     48.000000
 -0.363636  0.250000  0.045455     48.000000
 -0.340909  0.250000  0.045455     48.000000
 -0.318182  0.250000  0.045455     48.000000
 -0.295455  0.250000  0.045455     48.000000
 -0.272727  0.250000  0.045455     48.000000
 -0.250000  0.250000  0.045455     48.000000
 -0.227273  0.250000  0.045455     48.000000
 -0.204545  0.250000  0.045455     24.000000
  0.318182  0.272727  0.045455     24.000000
  0.340909  0.272727  0.045455     48.000000
  0.363636  0.272727  0.045455     48.000000
  0.386364  0.272727  0.045455     48.000000
  0.409091  0.272727  0.045455     48.000000
  0.431818  0.272727  0.045455     48.000000
  0.454545  0.272727  0.045455     48.000000
  0.477273  0.272727  0.045455     48.000000
  0.500000  0.272727  0.045455     48.000000
 -0.477273  0.272727  0.045455     48.000000
 -0.454545  0.272727  0.045455     48.000000
 -0.431818  0.272727  0.045455     48.000000
 -0.409091  0.272727  0.045455     48.000000
 -0.386364  0.272727  0.045455     48.000000
 -0.363636  0.272727  0.045455     48.000000
 -0.340909  0.272727  0.045455     48.000000
 -0.318182  0.272727  0.045455     48.000000
 -0.295455  0.272727  0.045455     48.000000
 -0.272727  0.272727  0.045455     48.000000
 -0.250000  0.272727  0.045455     48.000000
 -0.227273  0.272727  0.045455     24.000000
  0.340909  0.295455  0.045455     24.000000
  0.363636  0.295455  0.045455     48.000000
  0.386364  0.295455  0.045455     48.000000
  0.409091  0.295455  0.045455     48.000000
  0.431818  0.295455  0.045455     48.000000
  0.454545  0.295455  0.045455     48.000000
  0.477273  0.295455  0.045455     48.000000
  0.500000  0.295455  0.045455     48.000000
 -0.477273  0.295455  0.045455     48.000000
 -0.454545  0.295455  0.045455     48.000000
 -0.431818  0.295455  0.045455     48.000000
 -0.409091  0.295455  0.045455     48.000000
 -0.386364  0.295455  0.045455     48.000000
 -0.363636  0.295455  0.045455     48.000000
 -0.340909  0.295455  0.045455     48.000000
 -0.318182  0.295455  0.045455     48.000000
 -0.295455  0.295455  0.045455     48.000000
 -0.272727  0.295455  0.045455     48.000000
 -0.250000  0.295455  0.045455     24.000000
  0.363636  0.318182  0.045455     24.000000
  0.386364  0.318182  0.045455     48.000000
  0.409091  0.318182  0.045455     48.000000
  0.431818  0.318182  0.045455     48.000000
  0.454545  0.318182  0.045455     48.000000
  0.477273  0.318182  0.045455     48.000000
  0.500000  0.318182  0.045455     48.000000
 -0.477273  0.318182  0.045455     48.000000
 -0.454545  0.318182  0.045455     48.000000
 -0.431818  0.318182  0.045455     48.000000
 -0.409091  0.318182  0.045455     48.000000
 -0.386364  0.318182  0.045455     48.000000
 -0.363636  0.318182  0.045455     48.000000
 -0.340909  0.318182  0.045455     48.000000
 -0.318182  0.318182  0.045455     48.000000
 -0.295455  0.318182  0.045455     48.000000
 -0.272727  0.318182  0.045455     24.000000
  0.386364  0.340909  0.045455     24.000000
  0.409091  0.340909  0.045455     48.000000
  0.431818  0.340909  0.045455     48.000000
  0.454545  0.340909  0.045455     48.000000
  0.477273  0.340909  0.045455     48.000000
  0.500000  0.340909  0.045455     48.000000
 -0.477273  0.340909  0.045455     48.000000
 -0.454545  0.340909  0.045455     48.000000
 -0.431818  0.340909  0.045455     48.000000
 -0.409091  0.340909  0.045455     48.000000
 -0.386364  0.340909  0.045455     48.000000
 -0.363636  0.340909  0.045455     48.000000
 -0.340909  0.340909  0.045455     48.000000
 -0.318182  0.340909  0.045455     48.000000
 -0.295455  0.340909  0.045455     24.000000
  0.409091  0.363636  0.045455     24.000000
  0.431818  0.363636  0.045455     48.000000
  0.454545  0.363636  0.045455     48.000000
  0.477273  0.363636  0.045455     48.000000
  0.500000  0.363636  0.045455     48.000000
 -0.477273  0.363636  0.045455     48.000000
 -0.454545  0.363636  0.045455     48.000000
 -0.431818  0.363636  0.045455     48.000000
 -0.409091  0.363636  0.045455     48.000000
 -0.386364  0.363636  0.045455     48.000000
 -0.363636  0.363636  0.045455     48.000000
 -0.340909  0.363636  0.045455     48.000000
 -0.318182  0.363636  0.045455     24.000000
  0.431818  0.386364  0.045455     24.000000
  0.454545  0.386364  0.045455     48.000000
  0.477273  0.386364  0.045455     48.000000
  0.500000  0.386364  0.045455     48.000000
 -0.477273  0.386364  0.045455     48.000000
 -0.454545  0.386364  0.045455     48.000000
 -0.431818  0.386364  0.045455     48.000000
 -0.409091  0.386364  0.045455     48.000000
 -0.386364  0.386364  0.045455     48.000000
 -0.363636  0.386364  0.045455     48.000000
 -0.340909  0.386364  0.045455     24.000000
  0.454545  0.409091  0.045455     24.000000
  0.477273  0.409091  0.045455     48.000000
  0.500000  0.409091  0.045455     48.000000
 -0.477273  0.409091  0.045455     48.000000
 -0.454545  0.409091  0.045455     48.000000
 -0.431818  0.409091  0.045455     48.000000
 -0.409091  0.409091  0.045455     48.000000
 -0.386364  0.409091  0.045455     48.000000
 -0.363636  0.409091  0.045455     24.000000
  0.477273  0.431818  0.045455     24.000000
  0.500000  0.431818  0.045455     48.000000
 -0.477273  0.431818  0.045455     48.000000
 -0.454545  0.431818  0.045455     48.000000
 -0.431818  0.431818  0.045455     48.000000
 -0.409091  0.431818  0.045455     48.000000
 -0.386364  0.431818  0.045455     24.000000
  0.500000  0.454545  0.045455     24.000000
 -0.477273  0.454545  0.045455     48.000000
 -0.454545  0.454545  0.045455     48.000000
 -0.431818  0.454545  0.045455     48.000000
 -0.409091  0.454545  0.045455     24.000000
 -0.477273  0.477273  0.045455     24.000000
 -0.454545  0.477273  0.045455     48.000000
 -0.431818  0.477273  0.045455     24.000000
 -0.454545  0.500000  0.045455     12.000000
  0.204545  0.136364  0.068182     24.000000
  0.227273  0.136364  0.068182     48.000000
  0.250000  0.136364  0.068182     48.000000
  0.272727  0.136364  0.068182     48.000000
  0.295455  0.136364  0.068182     48.000000
  0.318182  0.136364  0.068182     48.000000
  0.340909  0.136364  0.068182     48.000000
  0.363636  0.136364  0.068182     48.000000
  0.386364  0.136364  0.068182     48.000000
  0.409091  0.136364  0.068182     48.000000
  0.431818  0.136364  0.068182     48.000000
  0.454545  0.136364  0.068182     48.000000
  0.477273  0.136364  0.068182     48.000000
  0.500000  0.136364  0.068182     48.000000
 -0.477273  0.136364  0.068182     48.000000
 -0.454545  0.136364  0.068182     48.000000
 -0.431818  0.136364  0.068182     24.000000
  0.227273  0.159091  0.068182     24.000000
  0.250000  0.159091  0.068182     48.000000
  0.272727  0.159091  0.068182     48.000000
  0.295455  0.159091  0.068182     48.000000
  0.318182  0.159091  0.068182     48.000000
  0.340909  0.159091  0.068182     48.000000
  0.363636  0.159091  0.068182     48.000000
  0.386364  0.159091  0.068182     48.000000
  0.409091  0.159091  0.068182     48.000000
  0.431818  0.159091  0.068182     48.000000
  0.454545  0.159091  0.068182     48.000000
  0.477273  0.159091  0.068182     48.000000
  0.500000  0.159091  0.068182     48.000000
 -0.477273  0.159091  0.068182     48.000000
[...]
      3     -23.3860      2.00000
      4      -2.1271      2.00000
      5       2.8991      2.00000
      6       3.4219      2.00000
      7       3.9666      2.00000
      8       6.0070      2.00000
      9       6.2575      2.00000
     10       6.4286      2.00000
     11       6.5770      2.00000
     12       7.1036      2.00000
     13       9.0144      0.00000
     14       9.0442      0.00000
     15       9.3482      0.00000
     16       9.7533      0.00000
     17      10.0228      0.00000
     18      13.9451      0.00000

 k-point  2153 :      -0.3182    0.4545    0.2045
  band No.  band energies     occupation 
      1     -23.4054      2.00000
      2     -23.3979      2.00000
      3     -23.3862      2.00000
      4      -2.1152      2.00000
      5       2.9739      2.00000
      6       3.3484      2.00000
      7       3.9226      2.00000
      8       6.0084      2.00000
      9       6.2667      2.00000
     10       6.4360      2.00000
     11       6.5673      2.00000
     12       7.1230      2.00000
     13       9.0329      0.00000
     14       9.1132      0.00000
     15       9.2928      0.00000
     16       9.6698      0.00000
     17      10.0019      0.00000
     18      14.1707      0.00000

 k-point  2154 :      -0.2955    0.4545    0.2045
  band No.  band energies     occupation 
      1     -23.4046      2.00000
      2     -23.3989      2.00000
      3     -23.3862      2.00000
      4      -2.1071      2.00000
      5       3.0426      2.00000
      6       3.2665      2.00000
      7       3.8985      2.00000
      8       6.0065      2.00000
      9       6.2786      2.00000
     10       6.4454      2.00000
     11       6.5587      2.00000
     12       7.1333      2.00000
     13       9.0501      0.00000
     14       9.1783      0.00000
     15       9.2547      0.00000
     16       9.6125      0.00000
     17       9.9918      0.00000
     18      14.3527      0.00000

 k-point  2155 :      -0.2727    0.4545    0.2045
  band No.  band energies     occupation 
      1     -23.4040      2.00000
      2     -23.3995      2.00000
      3     -23.3860      2.00000
      4      -2.1032      2.00000
      5       3.0829      2.00000
      6       3.1995      2.00000
      7       3.8934      2.00000
      8       6.0031      2.00000
      9       6.2890      2.00000
     10       6.4573      2.00000
     11       6.5545      2.00000
     12       7.1337      2.00000
     13       9.0634      0.00000
     14       9.1893      0.00000
     15       9.2598      0.00000
     16       9.6110      0.00000
     17       9.9897      0.00000
     18      14.4587      0.00000

 k-point  2156 :      -0.2500    0.4545    0.2045
  band No.  band energies     occupation 
      1     -23.4039      2.00000
      2     -23.3996      2.00000
      3     -23.3857      2.00000
      4      -2.1035      2.00000
      5       3.0280      2.00000
      6       3.2173      2.00000
      7       3.9045      2.00000
      8       6.0001      2.00000
      9       6.2938      2.00000
     10       6.4714      2.00000
     11       6.5569      2.00000
     12       7.1248      2.00000
     13       9.0625      0.00000
     14       9.1627      0.00000
     15       9.2906      0.00000
     16       9.6762      0.00000
     17       9.9957      0.00000
     18      14.4534      0.00000

 k-point  2157 :      -0.3182    0.4773    0.2045
  band No.  band energies     occupation 
      1     -23.4061      2.00000
      2     -23.3972      2.00000
      3     -23.3865      2.00000
      4      -2.1215      2.00000
      5       2.9748      2.00000
      6       3.4084      2.00000
      7       3.9356      2.00000
      8       6.0154      2.00000
      9       6.2343      2.00000
     10       6.4269      2.00000
     11       6.5690      2.00000
     12       7.1188      2.00000
     13       8.9989      0.00000
     14       9.0845      0.00000
     15       9.3190      0.00000
     16       9.6305      0.00000
     17       9.9993      0.00000
     18      13.9812      0.00000

 k-point  2158 :      -0.2955    0.4773    0.2045
  band No.  band energies     occupation 
      1     -23.4053      2.00000
      2     -23.3981      2.00000
      3     -23.3866      2.00000
      4      -2.1123      2.00000
      5       3.0347      2.00000
      6       3.3362      2.00000
      7       3.8967      2.00000
      8       6.0158      2.00000
      9       6.2534      2.00000
     10       6.4302      2.00000
     11       6.5603      2.00000
     12       7.1361      2.00000
     13       9.0244      0.00000
     14       9.1459      0.00000
     15       9.2779      0.00000
     16       9.5725      0.00000
     17       9.9888      0.00000
     18      14.2072      0.00000

 k-point  2159 :      -0.2727    0.4773    0.2045
  band No.  band energies     occupation 
      1     -23.4045      2.00000
      2     -23.3990      2.00000
      3     -23.3864      2.00000
      4      -2.1062      2.00000
      5       3.0830      2.00000
      6       3.2525      2.00000
      7       3.8842      2.00000
      8       6.0103      2.00000
      9       6.2750      2.00000
     10       6.4386      2.00000
     11       6.5552      2.00000
     12       7.1408      2.00000
     13       9.0470      0.00000
     14       9.2040      0.00000
     15       9.2392      0.00000
     16       9.5608      0.00000
     17       9.9857      0.00000
     18      14.3797      0.00000

 k-point  2160 :      -0.2955    0.5000    0.2045
  band No.  band energies     occupation 
      1     -23.4061      2.00000
      2     -23.3973      2.00000
      3     -23.3867      2.00000
      4      -2.1197      2.00000
      5       3.0033      2.00000
      6       3.4040      2.00000
      7       3.9223      2.00000
      8       6.0204      2.00000
      9       6.2231      2.00000
     10       6.4281      2.00000
     11       6.5651      2.00000
     12       7.1248      2.00000
     13       8.9934      0.00000
     14       9.0962      0.00000
     15       9.3222      0.00000
     16       9.5773      0.00000
     17       9.9920      0.00000
     18      13.9934      0.00000

 k-point  2161 :      -0.3182    0.4545    0.2273
  band No.  band energies     occupation 
      1     -23.4048      2.00000
      2     -23.3986      2.00000
      3     -23.3858      2.00000
      4      -2.1111      2.00000
      5       2.9618      2.00000
      6       3.3112      2.00000
      7       3.9144      2.00000
      8       6.0054      2.00000
      9       6.2840      2.00000
     10       6.4512      2.00000
     11       6.5659      2.00000
     12       7.1236      2.00000
     13       9.0770      0.00000
     14       9.0935      0.00000
     15       9.2969      0.00000
     16       9.7146      0.00000
     17      10.0051      0.00000
     18      14.3240      0.00000

 k-point  2162 :      -0.2955    0.4545    0.2273
  band No.  band energies     occupation 
      1     -23.4041      2.00000
      2     -23.3993      2.00000
      3     -23.3861      2.00000
      4      -2.1047      2.00000
      5       3.0422      2.00000
      6       3.2497      2.00000
      7       3.8867      2.00000
      8       6.0071      2.00000
      9       6.2871      2.00000
     10       6.4502      2.00000
     11       6.5568      2.00000
     12       7.1383      2.00000
     13       9.1014      0.00000
     14       9.1295      0.00000
     15       9.2586      0.00000
     16       9.6314      0.00000
     17       9.9924      0.00000
     18      14.4899      0.00000

 k-point  2163 :      -0.2727    0.4545    0.2273
  band No.  band energies     occupation 
      1     -23.4039      2.00000
      2     -23.3996      2.00000
      3     -23.3862      2.00000
      4      -2.1026      2.00000
      5       3.0865      2.00000
      6       3.2120      2.00000
      7       3.8771      2.00000
      8       6.0078      2.00000
      9       6.2881      2.00000
     10       6.4501      2.00000
     11       6.5532      2.00000
     12       7.1435      2.00000
     13       9.1101      0.00000
     14       9.1444      0.00000
     15       9.2486      0.00000
     16       9.5969      0.00000
     17       9.9886      0.00000
     18      14.5530      0.00000

 k-point  2164 :      -0.2955    0.4773    0.2273
  band No.  band energies     occupation 
      1     -23.4046      2.00000
      2     -23.3988      2.00000
      3     -23.3864      2.00000
      4      -2.1077      2.00000
      5       3.0496      2.00000
      6       3.2968      2.00000
      7       3.8761      2.00000
      8       6.0151      2.00000
      9       6.2724      2.00000
     10       6.4319      2.00000
     11       6.5572      2.00000
     12       7.1456      2.00000
     13       9.0703      0.00000
     14       9.1503      0.00000
     15       9.2432      0.00000
     16       9.5846      0.00000
     17       9.9884      0.00000
     18      14.4064      0.00000

 k-point  2165 :      -0.2727    0.4773    0.2273
  band No.  band energies     occupation 
      1     -23.4040      2.00000
      2     -23.3994      2.00000
      3     -23.3865      2.00000
      4      -2.1035      2.00000
      5       3.1128      2.00000
      6       3.2369      2.00000
      7       3.8541      2.00000
      8       6.0167      2.00000
      9       6.2798      2.00000
     10       6.4313      2.00000
     11       6.5513      2.00000
     12       7.1562      2.00000
     13       9.0978      0.00000
     14       9.1818      0.00000
     15       9.2128      0.00000
     16       9.5369      0.00000
     17       9.9829      0.00000
     18      14.5729      0.00000

 k-point  2166 :      -0.2500    0.4773    0.2273
  band No.  band energies     occupation 
      1     -23.4038      2.00000
      2     -23.3996      2.00000
      3     -23.3864      2.00000
      4      -2.1025      2.00000
      5       3.1197      2.00000
      6       3.2106      2.00000
      7       3.8588      2.00000
      8       6.0134      2.00000
      9       6.2858      2.00000
     10       6.4373      2.00000
     11       6.5511      2.00000
     12       7.1535      2.00000
     13       9.1162      0.00000
     14       9.1566      0.00000
     15       9.2263      0.00000
     16       9.5549      0.00000
     17       9.9840      0.00000
     18      14.6076      0.00000

 k-point  2167 :      -0.2727    0.5000    0.2273
  band No.  band energies     occupation 
      1     -23.4045      2.00000
      2     -23.3988      2.00000
      3     -23.3867      2.00000
      4      -2.1068      2.00000
      5       3.0835      2.00000
      6       3.2920      2.00000
      7       3.8591      2.00000
      8       6.0205      2.00000
      9       6.2654      2.00000
     10       6.4262      2.00000
     11       6.5537      2.00000
     12       7.1540      2.00000
     13       9.0646      0.00000
     14       9.1716      0.00000
     15       9.2376      0.00000
     16       9.5288      0.00000
     17       9.9831      0.00000
     18      14.4351      0.00000

 k-point  2168 :      -0.2500    0.5000    0.2500
  band No.  band energies     occupation 
      1     -23.4038      2.00000
      2     -23.3996      2.00000
      3     -23.3866      2.00000
      4      -2.1023      2.00000
      5       3.1487      2.00000
      6       3.2162      2.00000
      7       3.8377      2.00000
      8       6.0206      2.00000
      9       6.2803      2.00000
     10       6.4256      2.00000
     11       6.5489      2.00000
     12       7.1643      2.00000
     13       9.1241      0.00000
     14       9.1735      0.00000
     15       9.2025      0.00000
     16       9.5066      0.00000
     17       9.9802      0.00000
     18      14.6668      0.00000


--------------------------------------------------------------------------------------------------------


 soft charge-density along one line, spin component           1
         0         1         2         3         4         5         6         7         8         9
 total charge-density along one line
 
 pseudopotential strength for first ion, spin component:           1
 -3.463  -0.000  -0.000  -0.000  -0.000  -4.056  -0.000  -0.000
 -0.000  -3.463   0.000  -0.000  -0.000  -0.000  -4.056   0.000
 -0.000   0.000  -3.444   0.000   0.000  -0.000   0.000  -4.038
 -0.000  -0.000   0.000  -3.463   0.000  -0.000  -0.000   0.000
 -0.000  -0.000   0.000   0.000  -3.444  -0.000  -0.000   0.000
 -4.056  -0.000  -0.000  -0.000  -0.000  -4.606  -0.000  -0.000
 -0.000  -4.056   0.000  -0.000  -0.000  -0.000  -4.606   0.000
 -0.000   0.000  -4.038   0.000   0.000  -0.000   0.000  -4.588
 -0.000  -0.000   0.000  -4.056   0.000  -0.000  -0.000   0.000
 -0.000  -0.000   0.000   0.000  -4.038  -0.000  -0.000   0.000
  0.000   0.000  -0.000   0.000   0.000   0.000   0.000  -0.000
  0.000   0.000  -0.000   0.000   0.000   0.000   0.000  -0.000
  0.000   0.000   0.000   0.007   0.000   0.000   0.000   0.000
  0.007   0.000  -0.000   0.000  -0.000   0.006   0.000  -0.000
  0.000   0.007   0.000   0.000  -0.000   0.000   0.006   0.000
  0.000   0.000   0.000   0.007   0.000   0.000   0.000   0.000
  0.007   0.000  -0.000   0.000  -0.000   0.006   0.000  -0.000
  0.000   0.007   0.000   0.000  -0.000   0.000   0.006   0.000
 total augmentation occupancy for first ion, spin component:           1
  0.968   0.000   0.000   0.000   0.000  -0.650   0.000   0.000   0.000   0.000  -0.000   0.000   0.000   0.322   0.000   0.000
 -0.000   0.968   0.000   0.000  -0.000   0.000  -0.650   0.000   0.000   0.000   0.000   0.000   0.000   0.000   0.322   0.000
  0.000  -0.000   1.184  -0.000   0.000  -0.000  -0.000  -0.461  -0.000   0.000  -0.000   0.000   0.000   0.000   0.000   0.000
  0.000   0.000   0.000   0.968   0.000   0.000   0.000  -0.000  -0.650  -0.000   0.000   0.000   0.322   0.000   0.000  -0.031
 -0.000  -0.000   0.000   0.000   1.184   0.000   0.000   0.000  -0.000  -0.461   0.000   0.000   0.000   0.000  -0.000  -0.000
 -0.650   0.000   0.000   0.000   0.000   1.722   0.000  -0.000  -0.000  -0.000   0.000  -0.000  -0.000  -0.198   0.000  -0.000
  0.000  -0.650  -0.000   0.000   0.000   0.000   1.722   0.000   0.000  -0.000  -0.000   0.000  -0.000   0.000  -0.198  -0.000
  0.000  -0.000  -0.461  -0.000  -0.000  -0.000  -0.000   1.124   0.000  -0.000   0.000   0.000   0.000   0.000  -0.000   0.000
  0.000   0.000   0.000  -0.650  -0.000  -0.000   0.000  -0.000   1.722   0.000   0.000   0.000  -0.198   0.000  -0.000   0.029
 -0.000   0.000   0.000  -0.000  -0.461  -0.000  -0.000   0.000   0.000   1.124   0.000   0.000  -0.000   0.000   0.000   0.000
 -0.000   0.000   0.000   0.000   0.000   0.000  -0.000   0.000   0.000   0.000   2.564  -0.347   0.000   0.000  -0.000  -0.000
  0.000   0.000   0.000   0.000   0.000   0.000  -0.000   0.000  -0.000   0.000  -0.347   0.057  -0.000  -0.000  -0.000  -0.000
  0.000   0.000  -0.000   0.322   0.000   0.000  -0.000   0.000  -0.198  -0.000   0.000  -0.000   0.335   0.000  -0.000  -0.030
  0.322   0.000  -0.000   0.000   0.000  -0.198  -0.000   0.000   0.000  -0.000   0.000  -0.000   0.000   0.335  -0.000  -0.000
  0.000   0.322  -0.000   0.000  -0.000  -0.000  -0.198   0.000  -0.000   0.000  -0.000   0.000  -0.000   0.000   0.335   0.000
  0.000   0.000   0.000  -0.031  -0.000  -0.000  -0.000   0.000   0.029   0.000  -0.000   0.000  -0.030   0.000   0.000   0.004
 -0.031   0.000   0.000   0.000  -0.000   0.029   0.000   0.000  -0.000   0.000  -0.000   0.000   0.000  -0.030  -0.000  -0.000
  0.000  -0.031   0.000   0.000   0.000  -0.000   0.029  -0.000   0.000  -0.000  -0.000   0.000   0.000   0.000  -0.030   0.000


------------------------ aborting loop because EDIFF is reached ----------------------------------------


    CHARGE:  cpu time    1.4837: real time    1.4823
    FORLOC:  cpu time    0.0007: real time    0.0007
    FORNL :  cpu time    2.0871: real time    2.0870
    FORCOR:  cpu time    0.0439: real time    0.0439
    FORHAR:  cpu time    0.0018: real time    0.0019
    MIXING:  cpu time    0.0005: real time    0.0005
    OFIELD:  cpu time    0.0001: real time    0.0001

 VOLUME and BASIS-vectors are now :
 -----------------------------------------------------------------------------
  energy-cutoff  :      520.00
  volume of cell :       51.68
      direct lattice vectors                 reciprocal lattice vectors
     0.000000000  2.956487637  2.956487637    -0.169119598  0.169119598  0.169119598
     2.956487637  0.000000000  2.956487637     0.169119598 -0.169119598  0.169119598
     2.956487637  2.956487637  0.000000000     0.169119598  0.169119598 -0.169119598

  length of vectors
     4.181104914  4.181104914  4.181104914     0.292923736  0.292923736  0.292923736


 FORCES acting on ions
    electron-ion (+dipol)            ewald-force                    non-local-force                 convergence-correction
 -----------------------------------------------------------------------------------------------
   0.133E-06 0.133E-06 0.130E-06   -.103E-13 0.141E-14 0.132E-14   0.000E+00 -.694E-17 -.867E-18   -.506E-07 -.506E-07 -.506E-07
   -.252E-07 -.252E-07 -.284E-07   0.165E-13 0.413E-14 0.134E-13   -.208E-16 -.694E-17 -.208E-16   -.435E-07 -.435E-07 -.435E-07
   -.108E-06 -.108E-06 -.954E-07   -.721E-14 -.574E-14 -.173E-13   0.000E+00 0.000E+00 0.173E-17   -.244E-07 -.244E-07 -.244E-07
 -----------------------------------------------------------------------------------------------
   0.201E-10 0.207E-10 0.606E-08   -.102E-14 -.198E-15 -.251E-14   -.208E-16 -.139E-16 -.199E-16   -.118E-06 -.118E-06 -.118E-06
 
 
 POSITION                                       TOTAL-FORCE (eV/Angst)
 -----------------------------------------------------------------------------------
      4.43473      4.43473      4.43473         0.000000      0.000000      0.000000
      0.00000      0.00000      0.00000        -0.000000     -0.000000     -0.000000
      2.95649      2.95649      2.95649        -0.000000     -0.000000      0.000000
 -----------------------------------------------------------------------------------
    total drift:                               -0.000000     -0.000000     -0.000000


--------------------------------------------------------------------------------------------------------



  FREE ENERGIE OF THE ION-ELECTRON SYSTEM (eV)
  ---------------------------------------------------
  free  energy   TOTEN  =       -23.48413047 eV

  energy  without entropy=      -23.48413038  energy(sigma->0) =      -23.48413043
 


--------------------------------------------------------------------------------------------------------


    POTLOK:  cpu time    0.0436: real time    0.0436


--------------------------------------------------------------------------------------------------------


     LOOP+:  cpu time  424.8696: real time  429.1719
    4ORBIT:  cpu time    0.0000: real time    0.0000

 total amount of memory used by VASP MPI-rank0   134512. kBytes
=======================================================================

   base      :      30000. kBytes
   nonl-proj :      54324. kBytes
   fftplans  :       1833. kBytes
   grid      :        887. kBytes
   one-center:         15. kBytes
   wavefun   :      47453. kBytes
 
  
  
 General timing and accounting informations for this job:
 ========================================================
  
                  Total CPU time used (sec):      452.949
                            User time (sec):      443.225
                          System time (sec):        9.724
                         Elapsed time (sec):      515.455
  
                   Maximum memory used (kb):      266248.
                   Average memory used (kb):           0.
  
                          Minor page faults:       121929
                          Major page faults:            0
                 Voluntary context switches:       828833
