    3    3    1    1
  0.1722808E+02  0.4181105E-09  0.4181105E-09  0.4181105E-09  0.5000000E-16
  1.000000000000000E-004
  CAR 
 skutterudites                           
     24   2168     18
 
  0.0000000E+00  0.0000000E+00  0.0000000E+00  0.1173929E-04
      1        -23.334914   1.000000
      2        -23.334914   1.000000
      3        -23.334914   1.000000
      4         -3.924026   1.000000
      5          5.057056   1.000000
      6          5.057060   1.000000
      7          5.057060   1.000000
      8          5.473171   1.000000
      9          5.473171   1.000000
     10          6.634875   1.000000
     11          6.634877   1.000000
     12          6.634877   1.000000
     13          9.503633   0.000000
     14          9.503633   0.000000
     15         10.499162   0.000000
     16         10.499165   0.000000
     17         10.499166   0.000000
     18         11.627420   0.000000
 
  0.2272727E-01 -0.3230172E-14  0.2398899E-17  0.9391435E-04
      1        -23.335144   1.000000
      2        -23.334914   1.000000
      3        -23.334913   1.000000
      4         -3.917620   1.000000
      5          5.028990   1.000000
      6          5.028993   1.000000
      7          5.047138   1.000000
      8          5.501779   1.000000
      9          5.501780   1.000000
     10          6.614996   1.000000
     11          6.632837   1.000000
     12          6.632839   1.000000
     13          9.497844   0.000000
     14          9.497847   0.000000
     15         10.468041   0.000000
     16         10.517427   0.000000
     17         10.517432   0.000000
     18         11.691677   0.000000
 
  0.4545455E-01  0.6437947E-15  0.7362142E-17  0.9391435E-04
      1        -23.335824   1.000000
      2        -23.334914   1.000000
      3        -23.334914   1.000000
      4         -3.898386   1.000000
      5          4.960570   1.000000
      6          4.960573   1.000000
      7          5.016562   1.000000
      8          5.571702   1.000000
      9          5.571703   1.000000
     10          6.558077   1.000000
     11          6.627010   1.000000
     12          6.627011   1.000000
     13          9.481848   0.000000
     14          9.481849   0.000000
     15         10.393631   0.000000
     16         10.570622   0.000000
     17         10.570625   0.000000
     18         11.862964   0.000000
 
  0.6818182E-01 -0.2586830E-14  0.2822147E-17  0.9391435E-04
      1        -23.336931   1.000000
      2        -23.334911   1.000000
      3        -23.334910   1.000000
      4         -3.866462   1.000000
      5          4.873700   1.000000
      6          4.873702   1.000000
      7          4.962982   1.000000
      8          5.660618   1.000000
      9          5.660619   1.000000
     10          6.471856   1.000000
     11          6.618251   1.000000
     12          6.618253   1.000000
     13          9.458921   0.000000
     14          9.458922   0.000000
     15         10.307013   0.000000
     16         10.654739   0.000000
     17         10.654742   0.000000
     18         12.102839   0.000000
 
  0.9090909E-01  0.1287589E-14  0.1472428E-16  0.9391435E-04
      1        -23.338453   1.000000
      2        -23.334905   1.000000
      3        -23.334905   1.000000
      4         -3.822098   1.000000
      5          4.779718   1.000000
      6          4.779720   1.000000
      7          4.882792   1.000000
      8          5.756317   1.000000
      9          5.756318   1.000000
     10          6.367897   1.000000
     11          6.608126   1.000000
     12          6.608128   1.000000
     13          9.432696   0.000000
     14          9.432696   0.000000
     15         10.226611   0.000000
     16         10.764986   0.000000
     17         10.764987   0.000000
     18         12.381059   0.000000
 
  0.1136364E+00 -0.1934286E-14  0.3999535E-17  0.9391435E-04
      1        -23.340354   1.000000
      2        -23.334893   1.000000
      3        -23.334892   1.000000
      4         -3.765651   1.000000
      5          4.683697   1.000000
      6          4.683699   1.000000
      7          4.771982   1.000000
      8          5.852119   1.000000
      9          5.852120   1.000000
     10          6.259409   1.000000
     11          6.599128   1.000000
     12          6.599130   1.000000
     13          9.406124   0.000000
     14          9.406125   0.000000
     15         10.159068   0.000000
     16         10.896857   0.000000
     17         10.896859   0.000000
     18         12.673418   0.000000
 
  0.1363636E+00  0.1938323E-14  0.2023884E-17  0.9391435E-04
      1        -23.342584   1.000000
      2        -23.334881   1.000000
      3        -23.334880   1.000000
      4         -3.697509   1.000000
      5          4.588178   1.000000
      6          4.588180   1.000000
      7          4.627740   1.000000
      8          5.942687   1.000000
      9          5.942689   1.000000
     10          6.158486   1.000000
     11          6.595020   1.000000
     12          6.595022   1.000000
     13          9.381206   0.000000
     14          9.381207   0.000000
     15         10.104952   0.000000
     16         11.046481   0.000000
     17         11.046482   0.000000
     18         12.954972   0.000000
 
  0.1590909E+00 -0.1273295E-14  0.6987127E-17  0.9391435E-04
      1        -23.345113   1.000000
      2        -23.334867   1.000000
      3        -23.334867   1.000000
      4         -3.618219   1.000000
      5          4.450319   1.000000
      6          4.494661   1.000000
      7          4.494662   1.000000
      8          6.022078   1.000000
      9          6.022080   1.000000
     10          6.073564   1.000000
     11          6.601238   1.000000
     12          6.601239   1.000000
     13          9.359133   0.000000
     14          9.359135   0.000000
     15         10.062257   0.000000
     16         11.210506   0.000000
     17         11.210515   0.000000
     18         13.179164   0.000000
 
  0.1818182E+00  0.2575179E-14  0.2944857E-16  0.9391435E-04
      1        -23.347879   1.000000
      2        -23.334850   1.000000
      3        -23.334850   1.000000
      4         -3.528460   1.000000
      5          4.243543   1.000000
      6          4.404163   1.000000
      7          4.404164   1.000000
      8          6.008518   1.000000
      9          6.083629   1.000000
     10          6.083631   1.000000
     11          6.624340   1.000000
     12          6.624341   1.000000
     13          9.340537   0.000000
     14          9.340539   0.000000
     15         10.028114   0.000000
     16         11.385924   0.000000
     17         11.385943   0.000000
     18         13.288300   0.000000
 
  0.2045455E+00 -0.6298025E-15 -0.3601140E-17  0.9391435E-04
      1        -23.350815   1.000000
      2        -23.334833   1.000000
      3        -23.334833   1.000000
      4         -3.429058   1.000000
      5          4.013762   1.000000
      6          4.317439   1.000000
      7          4.317441   1.000000
      8          5.963483   1.000000
      9          6.122494   1.000000
     10          6.122496   1.000000
     11          6.669158   1.000000
     12          6.669159   1.000000
     13          9.325667   0.000000
     14          9.325669   0.000000
     15          9.999524   0.000000
     16         11.569846   0.000000
     17         11.569972   0.000000
     18         13.230051   0.000000
 
  0.2272727E+00  0.3250047E-14  0.7999069E-17  0.9391435E-04
      1        -23.353875   1.000000
      2        -23.334819   1.000000
      3        -23.334819   1.000000
      4         -3.320949   1.000000
      5          3.768176   1.000000
      6          4.235125   1.000000
      7          4.235126   1.000000
      8          5.936687   1.000000
      9          6.139142   1.000000
     10          6.139144   1.000000
     11          6.735176   1.000000
     12          6.735177   1.000000
     13          9.314582   0.000000
     14          9.314583   0.000000
     15          9.973676   0.000000
     16         11.759397   0.000000
     17         11.759618   0.000000
     18         13.045215   0.000000
 
  0.2500000E+00  0.1067364E-16 -0.7552441E-17  0.9391435E-04
      1        -23.356997   1.000000
      2        -23.334805   1.000000
      3        -23.334805   1.000000
      4         -3.205299   1.000000
      5          3.513689   1.000000
      6          4.157744   1.000000
      7          4.157746   1.000000
      8          5.925769   1.000000
      9          6.138794   1.000000
     10          6.138796   1.000000
     11          6.816972   1.000000
     12          6.816974   1.000000
     13          9.307205   0.000000
     14          9.307207   0.000000
     15          9.947989   0.000000
     16         11.951502   0.000000
     17         11.951640   0.000000
     18         12.802288   0.000000
 
  0.2727273E+00 -0.3200944E-14  0.4047768E-17  0.9391435E-04
      1        -23.360103   1.000000
      2        -23.334787   1.000000
      3        -23.334787   1.000000
      4         -3.083505   1.000000
      5          3.256332   1.000000
      6          4.085760   1.000000
      7          4.085761   1.000000
      8          5.928419   1.000000
      9          6.127601   1.000000
     10          6.127603   1.000000
     11          6.907993   1.000000
     12          6.907994   1.000000
     13          9.303386   0.000000
     14          9.303388   0.000000
     15          9.920130   0.000000
     16         12.142882   0.000000
     17         12.143018   0.000000
     18         12.540079   0.000000
 
  0.2954545E+00  0.6650276E-15 -0.4866776E-17  0.9391435E-04
      1        -23.363133   1.000000
      2        -23.334768   1.000000
      3        -23.334768   1.000000
      4         -2.957268   1.000000
      5          3.001341   1.000000
      6          4.019560   1.000000
      7          4.019562   1.000000
      8          5.942501   1.000000
      9          6.110364   1.000000
     10          6.110366   1.000000
     11          7.002813   1.000000
     12          7.002815   1.000000
     13          9.302912   0.000000
     14          9.302914   0.000000
     15          9.888007   0.000000
     16         12.279724   0.000000
     17         12.330536   0.000000
     18         12.331658   0.000000
 
  0.3181818E+00 -0.2546590E-14  0.1397425E-16  0.9391435E-04
      1        -23.366033   1.000000
      2        -23.334750   1.000000
      3        -23.334750   1.000000
      4         -2.828627   1.000000
      5          2.753346   1.000000
      6          3.959484   1.000000
      7          3.959486   1.000000
      8          5.965953   1.000000
      9          6.090323   1.000000
     10          6.090325   1.000000
     11          7.097323   1.000000
     12          7.097325   1.000000
     13          9.305488   0.000000
     14          9.305490   0.000000
     15          9.849880   0.000000
     16         12.034705   0.000000
     17         12.509962   0.000000
     18         12.512113   0.000000
 
  0.3409091E+00  0.1291626E-14  0.5059710E-17  0.9391435E-04
      1        -23.368747   1.000000
      2        -23.334735   1.000000
      3        -23.334734   1.000000
      4         -2.700056   1.000000
      5          2.516771   1.000000
      6          3.905832   1.000000
      7          3.905832   1.000000
      8          5.996683   1.000000
      9          6.069620   1.000000
     10          6.069622   1.000000
     11          7.188311   1.000000
     12          7.188314   1.000000
     13          9.310743   0.000000
     14          9.310742   0.000000
     15          9.804687   0.000000
     16         11.813102   0.000000
     17         12.678179   0.000000
     18         12.684134   0.000000
 
  0.3636364E+00 -0.1954989E-14  0.3838238E-16  0.9391435E-04
      1        -23.371215   1.000000
      2        -23.334723   1.000000
      3        -23.334723   1.000000
      4         -2.574627   1.000000
      5          2.295995   1.000000
      6          3.858849   1.000000
      7          3.858850   1.000000
      8          6.032366   1.000000
      9          6.049687   1.000000
     10          6.049689   1.000000
     11          7.273069   1.000000
     12          7.273071   1.000000
     13          9.318130   0.000000
     14          9.318134   0.000000
     15          9.752441   0.000000
     16         11.620451   0.000000
     17         12.826824   0.000000
     18         12.859155   0.000000
 
  0.3863636E+00  0.1944772E-14  0.1619391E-16  0.9391435E-04
      1        -23.373392   1.000000
      2        -23.334714   1.000000
      3        -23.334714   1.000000
      4         -2.456017   1.000000
      5          2.095632   1.000000
      6          3.818764   1.000000
      7          3.818765   1.000000
      8          6.031542   1.000000
      9          6.031544   1.000000
     10          6.070398   1.000000
     11          7.349241   1.000000
     12          7.349244   1.000000
     13          9.326995   0.000000
     14          9.327000   0.000000
     15          9.694824   0.000000
     16         11.459933   0.000000
     17         12.947231   0.000000
     18         13.085651   0.000000
 
  0.4090909E+00 -0.1259605E-14 -0.7202280E-17  0.9391435E-04
      1        -23.375230   1.000000
      2        -23.334704   1.000000
      3        -23.334703   1.000000
      4         -2.348546   1.000000
      5          1.920623   1.000000
      6          3.785736   1.000000
      7          3.785738   1.000000
      8          6.015886   1.000000
      9          6.015887   1.000000
     10          6.107855   1.000000
     11          7.414715   1.000000
     12          7.414717   1.000000
     13          9.336434   0.000000
     14          9.336434   0.000000
     15          9.635478   0.000000
     16         11.332469   0.000000
     17         13.085092   0.000000
     18         13.298300   0.000000
 
  0.4318182E+00  0.2593093E-14 -0.2842892E-17  0.9391435E-04
      1        -23.376697   1.000000
      2        -23.334698   1.000000
      3        -23.334697   1.000000
      4         -2.257101   1.000000
      5          1.776320   1.000000
      6          3.759908   1.000000
      7          3.759908   1.000000
      8          6.003235   1.000000
      9          6.003236   1.000000
     10          6.141617   1.000000
     11          7.467665   1.000000
     12          7.467667   1.000000
     13          9.345417   0.000000
     14          9.345421   0.000000
     15          9.579789   0.000000
     16         11.237028   0.000000
     17         13.112446   0.000000
     18         13.157267   0.000000
 
  0.4545455E+00 -0.6535214E-15  0.2724206E-17  0.9391435E-04
      1        -23.377767   1.000000
      2        -23.334695   1.000000
      3        -23.334695   1.000000
      4         -2.186824   1.000000
      5          1.668129   1.000000
      6          3.741385   1.000000
      7          3.741386   1.000000
      8          5.993955   1.000000
      9          5.993957   1.000000
     10          6.168574   1.000000
     11          7.506600   0.999998
     12          7.506603   0.999998
     13          9.352873   0.000000
     14          9.352875   0.000000
     15          9.533983   0.000000
     16         11.171440   0.000000
     17         13.141087   0.000000
     18         13.220877   0.000000
 
  0.4772727E+00  0.3240206E-14  0.7083594E-17  0.9391435E-04
      1        -23.378422   1.000000
      2        -23.334697   1.000000
      3        -23.334697   1.000000
      4         -2.142398   1.000000
      5          1.600885   1.000000
      6          3.730238   1.000000
      7          3.730239   1.000000
      8          5.988291   1.000000
      9          5.988293   1.000000
     10          6.186008   1.000000
     11          7.530412   0.999995
     12          7.530417   0.999995
     13          9.357801   0.000000
     14          9.357804   0.000000
     15          9.503785   0.000000
     16         11.133283   0.000000
     17         13.121946   0.000000
     18         13.169208   0.000000
 
  0.5000000E+00  0.2134728E-16 -0.1510488E-16  0.4695718E-04
      1        -23.378640   1.000000
      2        -23.334698   1.000000
      3        -23.334698   1.000000
      4         -2.127188   1.000000
      5          1.578038   1.000000
      6          3.726513   1.000000
      7          3.726514   1.000000
      8          5.986384   1.000000
      9          5.986384   1.000000
     10          6.192035   1.000000
     11          7.538426   0.999993
     12          7.538428   0.999993
     13          9.359511   0.000000
     14          9.359516   0.000000
     15          9.493230   0.000000
     16         11.120783   0.000000
     17         13.145691   0.000000
     18         13.199879   0.000000
 
  0.2272727E-01  0.2272727E-01  0.1771312E-17  0.7043576E-04
      1        -23.335101   1.000000
      2        -23.334974   1.000000
      3        -23.334974   1.000000
      4         -3.915484   1.000000
      5          4.974548   1.000000
      6          5.058218   1.000000
      7          5.058221   1.000000
      8          5.477621   1.000000
      9          5.537322   1.000000
     10          6.615861   1.000000
     11          6.628396   1.000000
     12          6.628397   1.000000
     13          9.492509   0.000000
     14          9.499202   0.000000
     15         10.478384   0.000000
     16         10.512933   0.000000
     17         10.512936   0.000000
     18         11.713508   0.000000
 
  0.4545455E-01  0.2272727E-01  0.3418941E-17  0.2817431E-03
      1        -23.335607   1.000000
      2        -23.335034   1.000000
      3        -23.334938   1.000000
      4         -3.900537   1.000000
      5          4.891951   1.000000
      6          5.031543   1.000000
      7          5.046556   1.000000
      8          5.510357   1.000000
      9          5.604774   1.000000
     10          6.573068   1.000000
     11          6.620169   1.000000
     12          6.625535   1.000000
     13          9.476914   0.000000
     14          9.489293   0.000000
     15         10.423637   0.000000
     16         10.544281   0.000000
     17         10.558741   0.000000
     18         11.849663   0.000000
 
  0.6818182E-01  0.2272727E-01  0.1744878E-17  0.2817431E-03
      1        -23.336571   1.000000
      2        -23.335092   1.000000
      3        -23.334874   1.000000
      4         -3.872872   1.000000
      5          4.797010   1.000000
      6          4.964860   1.000000
      7          5.009757   1.000000
      8          5.583692   1.000000
      9          5.688644   1.000000
     10          6.496098   1.000000
     11          6.609034   1.000000
     12          6.621256   1.000000
     13          9.454504   0.000000
     14          9.470169   0.000000
     15         10.341836   0.000000
     16         10.608663   0.000000
     17         10.641320   0.000000
     18         12.066290   0.000000
 
  0.9090909E-01  0.2272727E-01  0.3389638E-17  0.2817431E-03
      1        -23.337954   1.000000
      2        -23.335140   1.000000
      3        -23.334812   1.000000
      4         -3.832695   1.000000
      5          4.695982   1.000000
      6          4.879626   1.000000
      7          4.947257   1.000000
      8          5.675385   1.000000
      9          5.779396   1.000000
     10          6.397373   1.000000
     11          6.596488   1.000000
     12          6.614559   1.000000
     13          9.429099   0.000000
     14          9.445232   0.000000
     15         10.260693   0.000000
     16         10.701500   0.000000
     17         10.750369   0.000000
     18         12.330733   0.000000
 
  0.1136364E+00  0.2272727E-01  0.3224193E-17  0.2817431E-03
      1        -23.339730   1.000000
      2        -23.335181   1.000000
      3        -23.334754   1.000000
      4         -3.780339   1.000000
      5          4.591178   1.000000
      6          4.786972   1.000000
      7          4.857375   1.000000
      8          5.772878   1.000000
      9          5.871108   1.000000
     10          6.289878   1.000000
     11          6.584830   1.000000
     12          6.607287   1.000000
     13          9.403768   0.000000
     14          9.417826   0.000000
     15         10.190227   0.000000
     16         10.817893   0.000000
     17         10.881427   0.000000
     18         12.620471   0.000000
 
  0.1363636E+00  0.2272727E-01  0.4868953E-17  0.2817431E-03
      1        -23.341848   1.000000
      2        -23.335211   1.000000
      3        -23.334700   1.000000
      4         -3.716164   1.000000
      5          4.481742   1.000000
      6          4.691932   1.000000
      7          4.740034   1.000000
      8          5.868659   1.000000
      9          5.958631   1.000000
     10          6.186762   1.000000
     11          6.577491   1.000000
     12          6.602492   1.000000
     13          9.380487   0.000000
     14          9.390513   0.000000
     15         10.132764   0.000000
     16         10.953401   0.000000
     17         11.030833   0.000000
     18         12.904420   0.000000
 
  0.1590909E+00  0.2272727E-01  0.6211786E-17  0.2817431E-03
      1        -23.344275   1.000000
      2        -23.335236   1.000000
      3        -23.334651   1.000000
      4         -3.640670   1.000000
      5          4.361996   1.000000
      6          4.597067   1.000000
      7          4.601463   1.000000
      8          5.956119   1.000000
      9          6.032618   1.000000
     10          6.102101   1.000000
     11          6.579469   1.000000
     12          6.604814   1.000000
     13          9.360335   0.000000
     14          9.365008   0.000000
     15         10.087158   0.000000
     16         11.104170   0.000000
     17         11.195430   0.000000
     18         13.164369   0.000000
 
  0.1818182E+00  0.2272727E-01  0.7554618E-17  0.2817431E-03
      1        -23.346961   1.000000
      2        -23.335255   1.000000
      3        -23.334609   1.000000
      4         -3.554492   1.000000
      5          4.218042   1.000000
      6          4.459243   1.000000
      7          4.503916   1.000000
      8          6.017298   1.000000
      9          6.028088   1.000000
     10          6.110758   1.000000
     11          6.597269   1.000000
     12          6.620448   1.000000
     13          9.342349   0.000000
     14          9.343781   0.000000
     15         10.050888   0.000000
     16         11.266803   0.000000
     17         11.372373   0.000000
     18         13.307079   0.000000
 
  0.2045455E+00  0.2272727E-01  0.1975868E-16  0.2817431E-03
      1        -23.349837   1.000000
      2        -23.335263   1.000000
      3        -23.334573   1.000000
      4         -3.458421   1.000000
      5          4.035124   1.000000
      6          4.334615   1.000000
      7          4.413535   1.000000
      8          5.969019   1.000000
      9          6.078255   1.000000
     10          6.151780   1.000000
     11          6.636841   1.000000
     12          6.655329   1.000000
     13          9.323104   0.000000
     14          9.330911   0.000000
     15         10.021088   0.000000
     16         11.438128   0.000000
     17         11.558343   0.000000
     18         13.299535   0.000000
 
  0.2272727E+00  0.2272727E-01  0.4207172E-17  0.2817431E-03
      1        -23.352851   1.000000
      2        -23.335264   1.000000
      3        -23.334545   1.000000
      4         -3.353332   1.000000
      5          3.816935   1.000000
      6          4.231637   1.000000
      7          4.326728   1.000000
      8          5.937403   1.000000
      9          6.104931   1.000000
     10          6.172525   1.000000
     11          6.699576   1.000000
     12          6.711246   1.000000
     13          9.307572   0.000000
     14          9.321609   0.000000
     15          9.994932   0.000000
     16         11.615045   0.000000
     17         11.750007   0.000000
     18         13.148645   0.000000
 
  0.2500000E+00  0.2272727E-01  0.8566560E-17  0.2817431E-03
      1        -23.355947   1.000000
      2        -23.335258   1.000000
      3        -23.334527   1.000000
      4         -3.240327   1.000000
      5          3.577601   1.000000
      6          4.143834   1.000000
      7          4.244160   1.000000
      8          5.921893   1.000000
      9          6.112210   1.000000
     10          6.175058   1.000000
     11          6.780951   1.000000
     12          6.784440   1.000000
     13          9.295883   0.000000
     14          9.315657   0.000000
     15          9.969779   0.000000
     16         11.794324   0.000000
     17         11.942244   0.000000
     18         12.923633   0.000000
 
  0.2727273E+00  0.2272727E-01 -0.6984951E-17  0.2817431E-03
      1        -23.359056   1.000000
      2        -23.335243   1.000000
      3        -23.334518   1.000000
      4         -3.120710   1.000000
      5          3.328469   1.000000
      6          4.066674   1.000000
      7          4.166395   1.000000
      8          5.920345   1.000000
      9          6.106509   1.000000
     10          6.165200   1.000000
     11          6.868743   1.000000
     12          6.873958   1.000000
     13          9.288081   0.000000
     14          9.312772   0.000000
     15          9.943186   0.000000
     16         11.972509   0.000000
     17         12.122008   0.000000
     18         12.685244   0.000000
 
  0.2954545E+00  0.2272727E-01  0.1185608E-16  0.2817431E-03
      1        -23.362107   1.000000
      2        -23.335217   1.000000
      3        -23.334515   1.000000
      4         -2.996103   1.000000
      5          3.077397   1.000000
      6          3.998158   1.000000
      7          4.093917   1.000000
      8          5.930563   1.000000
      9          6.093322   1.000000
     10          6.148163   1.000000
     11          6.958634   1.000000
     12          6.972284   1.000000
     13          9.284145   0.000000
     14          9.312632   0.000000
     15          9.912917   0.000000
     16         12.147301   0.000000
     17         12.215575   0.000000
     18         12.528399   0.000000
 
  0.3181818E+00  0.2272727E-01 -0.4299286E-17  0.2817431E-03
      1        -23.365046   1.000000
      2        -23.335181   1.000000
      3        -23.334521   1.000000
      4         -2.868396   1.000000
      5          2.830328   1.000000
      6          3.937473   1.000000
      7          4.027140   1.000000
      8          5.950354   1.000000
      9          6.076446   1.000000
     10          6.127707   1.000000
     11          7.049929   1.000000
     12          7.071071   1.000000
     13          9.283988   0.000000
     14          9.314848   0.000000
     15          9.877006   0.000000
     16         12.074434   0.000000
     17         12.312697   0.000000
     18         12.615122   0.000000
 
  0.3409091E+00  0.2272727E-01  0.1454175E-16  0.2817431E-03
      1        -23.367820   1.000000
      2        -23.335139   1.000000
      3        -23.334536   1.000000
      4         -2.739916   1.000000
      5          2.592304   1.000000
      6          3.884310   1.000000
      7          3.966422   1.000000
      8          5.977198   1.000000
      9          6.058368   1.000000
     10          6.106694   1.000000
     11          7.139453   1.000000
     12          7.166555   1.000000
     13          9.287437   0.000000
     14          9.318980   0.000000
     15          9.834001   0.000000
     16         11.868030   0.000000
     17         12.465508   0.000000
     18         12.780451   0.000000
 
  0.3636364E+00  0.2272727E-01 -0.1613621E-17  0.2817431E-03
      1        -23.370365   1.000000
      2        -23.335095   1.000000
      3        -23.334562   1.000000
      4         -2.613511   1.000000
      5          2.367997   1.000000
      6          3.838583   1.000000
      7          3.912077   1.000000
      8          6.007174   1.000000
      9          6.040724   1.000000
     10          6.088459   1.000000
     11          7.224616   1.000000
     12          7.255631   1.000000
     13          9.294170   0.000000
     14          9.324531   0.000000
     15          9.783409   0.000000
     16         11.675558   0.000000
     17         12.604341   0.000000
     18         12.965387   0.000000
 
  0.3863636E+00  0.2272727E-01  0.1119430E-16  0.2817431E-03
      1        -23.372635   1.000000
      2        -23.335045   1.000000
      3        -23.334595   1.000000
      4         -2.492665   1.000000
      5          2.162098   1.000000
      6          3.800283   1.000000
      7          3.864363   1.000000
      8          6.024643   1.000000
      9          6.029307   1.000000
     10          6.082604   1.000000
     11          7.303132   1.000000
     12          7.335641   1.000000
     13          9.303691   0.000000
     14          9.330885   0.000000
     15          9.726214   0.000000
     16         11.510823   0.000000
     17         12.717910   0.000000
     18         13.125931   0.000000
 
  0.4090909E+00  0.2272727E-01  0.2279755E-17  0.2817431E-03
      1        -23.374583   1.000000
      2        -23.334988   1.000000
      3        -23.334636   1.000000
      4         -2.381446   1.000000
      5          1.979524   1.000000
      6          3.769453   1.000000
      7          3.823511   1.000000
      8          6.010908   1.000000
      9          6.027544   1.000000
     10          6.103198   1.000000
     11          7.372916   1.000000
     12          7.404289   1.000000
     13          9.315222   0.000000
     14          9.337392   0.000000
     15          9.665349   0.000000