       N       E                     dE             d eps       ncg     rms          rms(c)
DAV:   1     0.183631942945E+03    0.18363E+03   -0.11203E+04 79240   0.137E+03
DAV:   2    -0.143802908227E+02   -0.19801E+03   -0.19282E+03 87042   0.413E+02
DAV:   3    -0.244323782225E+02   -0.10052E+02   -0.96811E+01107750   0.911E+01
DAV:   4    -0.248328318223E+02   -0.40045E+00   -0.39609E+00107678   0.187E+01
DAV:   5    -0.248447825704E+02   -0.11951E-01   -0.11941E-01110574   0.322E+00    0.195E+01
RMM:   6    -0.242765983258E+02    0.56818E+00   -0.33554E-01 87131   0.746E+00    0.148E+01
RMM:   7    -0.237231839696E+02    0.55341E+00   -0.11966E+00118944   0.912E+00    0.980E+00
RMM:   8    -0.236017935663E+02    0.12139E+00   -0.15411E+00124931   0.112E+01    0.353E+00
RMM:   9    -0.235501707830E+02    0.51623E-01   -0.91893E-02110273   0.312E+00    0.361E+00
RMM:  10    -0.234975564131E+02    0.52614E-01   -0.19919E-01108497   0.382E+00    0.158E+00
RMM:  11    -0.235184823765E+02   -0.20926E-01   -0.60093E-02 94124   0.308E+00    0.173E+00
RMM:  12    -0.234873278859E+02    0.31154E-01   -0.34348E-02 94315   0.258E+00    0.139E+00
RMM:  13    -0.234843956334E+02    0.29323E-02   -0.90512E-03100451   0.911E-01    0.559E-01
RMM:  14    -0.234846730233E+02   -0.27739E-03   -0.23910E-03104139   0.365E-01    0.290E-01
RMM:  15    -0.234846072751E+02    0.65748E-04   -0.32325E-04 72308   0.279E-01
   1 F= -.23484607E+02 E0= -.23484607E+02  d E =-.518910E-07
