 vasp.6.3.0 20Jan22 (build Jun 09 2022 20:58:46) complex                        
  
 executed on             LinuxIFC date 2022.06.10  20:38:33
 running on   24 total cores
 distrk:  each k-point on   24 cores,    1 groups
 distr:  one band on NCORE=  24 cores,    1 groups


--------------------------------------------------------------------------------------------------------


 INCAR:
   SYSTEM = skutterudites
   NWRITE = 2
   LPETIM = F  write-flag & timer
   ISTART = 1   job   :0-new  1-cont  2-samecut
   ICHARG = 1   charge: 1-file 2-atom 10-con
   ENCUT = 520
   NELM = 140
   NELMIN = 5
   EDIFF = 1E-04  stopping-criterion for ELM
   AMIX = 0.1
   BMIX = 1.2
   NSW = 0   number of steps for IOM
   EDIFFG = -1E-02  stopping-criterion for IOM
   NBLOCK = 1
   KBLOCK = 5  inner block
   IBRION = -1   ionic relax: 0-MD 1-quasi-New 2-CG
   ISIF = 0   stress and relaxation
   IWAVPR = 1   prediction: 0-non 1-charg 2-wave 3-comb
   LCORR = T   Harris-correction to forces
   POTIM = 0.05   time-step for ion-motion
   ISMEAR = -1
   SIGMA = 0.0258  broadening in eV -4-tet -1-fermi 0-gaus
   ALGO = fast   algorithm
   LDIAG = T   sub-space diagonalisation
   LREAL = F   real-space projection(O or Auto)
   WEIMIN = 0
   NPAR = 1
   PREC = Accurate
   ADDGRID = .TRUE.
   LWAVE = .FALSE.
   LCHARG = .FALSE.
   NBANDS = 18

 POTCAR:    PAW_PBE Fe 06Sep2000                  
 POTCAR:    PAW_PBE Nb_pv 08Apr2002               
 POTCAR:    PAW_PBE Sb 06Sep2000                  
 -----------------------------------------------------------------------------
|                                                                             |
|           W    W    AA    RRRRR   N    N  II  N    N   GGGG   !!!           |
|           W    W   A  A   R    R  NN   N  II  NN   N  G    G  !!!           |
|           W    W  A    A  R    R  N N  N  II  N N  N  G       !!!           |
|           W WW W  AAAAAA  RRRRR   N  N N  II  N  N N  G  GGG   !            |
|           WW  WW  A    A  R   R   N   NN  II  N   NN  G    G                |
|           W    W  A    A  R    R  N    N  II  N    N   GGGG   !!!           |
|                                                                             |
|     For optimal performance we recommend to set                             |
|       NCORE = 2 up to number-of-cores-per-socket                            |
|     NCORE specifies how many cores store one orbital (NPAR=cpu/NCORE).      |
|     This setting can greatly improve the performance of VASP for DFT.       |
|     The default, NCORE=1 might be grossly inefficient on modern             |
|     multi-core architectures or massively parallel machines. Do your        |
|     own testing! More info at https://www.vasp.at/wiki/index.php/NCORE      |
|     Unfortunately you need to use the default for GW and RPA                |
|     calculations (for HF NCORE is supported but not extensively tested      |
|     yet).                                                                   |
|                                                                             |
 -----------------------------------------------------------------------------

 POTCAR:    PAW_PBE Fe 06Sep2000                  
   VRHFIN =Fe:  d7 s1                                                                               
   LEXCH  = PE                                                                                      
   EATOM  =   594.3153 eV,   43.6809 Ry                                                             
                                                                                                    
   TITEL  = PAW_PBE Fe 06Sep2000                                                                    
   LULTRA =        F    use ultrasoft PP ?                                                          
   IUNSCR =        1    unscreen: 0-lin 1-nonlin 2-no                                               
   RPACOR =    2.000    partial core radius                                                         
   POMASS =   55.847; ZVAL   =    8.000    mass and valenz                                          
   RCORE  =    2.300    outmost cutoff radius                                                       
   RWIGS  =    2.460; RWIGS  =    1.302    wigner-seitz radius (au A)                               
   ENMAX  =  267.882; ENMIN  =  200.911 eV                                                          
   RCLOC  =    1.701    cutoff for local pot                                                        
   LCOR   =        T    correct aug charges                                                         
   LPAW   =        T    paw PP                                                                      
   EAUG   =  511.368                                                                                
   DEXC   =    0.000                                                                                
   RMAX   =    2.356    core radius for proj-oper                                                   
   RAUG   =    1.300    factor for augmentation sphere                                              
   RDEP   =    2.442    radius for radial grids                                                     
   RDEPT  =    1.890    core radius for aug-charge                                                  
                                                                                                    
   Atomic configuration                                                                             
    9 entries                                                                                       
     n  l   j            E        occ.                                                              
     1  0  0.50     -6993.8440   2.0000                                                             
     2  0  0.50      -814.6047   2.0000                                                             
     2  1  1.50      -693.3689   6.0000                                                             
     3  0  0.50       -89.4732   2.0000                                                             
     3  1  1.50       -55.6373   6.0000                                                             
     3  2  2.50        -3.8151   7.0000                                                             
     4  0  0.50        -4.2551   1.0000                                                             
     4  1  1.50        -3.4015   0.0000                                                             
     4  3  2.50        -1.3606   0.0000                                                             
   Description                                                                                      
     l       E           TYP  RCUT    TYP  RCUT                                                     
     2     -3.8151135     23  2.300                                                                 
     2     -5.1756961     23  2.300                                                                 
     0     -4.2550963     23  2.300                                                                 
     0      7.2035603     23  2.300                                                                 
     1     -2.7211652     23  2.300                                                                 
     1     18.4316424     23  2.300                                                                 
  local pseudopotential read in
  partial core-charges read in
  partial kinetic energy density read in
  atomic valenz-charges read in
  non local Contribution for L=           2  read in
    real space projection operators read in
  non local Contribution for L=           2  read in
    real space projection operators read in
  non local Contribution for L=           0  read in
    real space projection operators read in
  non local Contribution for L=           0  read in
    real space projection operators read in
  non local Contribution for L=           1  read in
    real space projection operators read in
  non local Contribution for L=           1  read in
    real space projection operators read in
    PAW grid and wavefunctions read in
 
   number of l-projection  operators is LMAX  =           6
   number of lm-projection operators is LMMAX =          18
 
 POTCAR:    PAW_PBE Nb_pv 08Apr2002               
   VRHFIN =Nb: 4p5s4d                                                                               
   LEXCH  = PE                                                                                      
   EATOM  =  1043.3917 eV,   76.6871 Ry                                                             
                                                                                                    
   TITEL  = PAW_PBE Nb_pv 08Apr2002                                                                 
   LULTRA =        F    use ultrasoft PP ?                                                          
   IUNSCR =        1    unscreen: 0-lin 1-nonlin 2-no                                               
   RPACOR =    2.200    partial core radius                                                         
   POMASS =   92.000; ZVAL   =   11.000    mass and valenz                                          
   RCORE  =    2.750    outmost cutoff radius                                                       
   RWIGS  =    2.840; RWIGS  =    1.503    wigner-seitz radius (au A)                               
   ENMAX  =  208.608; ENMIN  =  156.456 eV                                                          
   RCLOC  =    2.201    cutoff for local pot                                                        
   LCOR   =        T    correct aug charges                                                         
   LPAW   =        T    paw PP                                                                      
   EAUG   =  355.067                                                                                
   DEXC   =    0.000                                                                                
   RMAX   =    2.804    core radius for proj-oper                                                   
   RAUG   =    1.300    factor for augmentation sphere                                              
   RDEP   =    2.776    radius for radial grids                                                     
   RDEPT  =    2.198    core radius for aug-charge                                                  
                                                                                                    
   Atomic configuration                                                                             
   11 entries                                                                                       
     n  l   j            E        occ.                                                              
     1  0  0.50    -18805.2456   2.0000                                                             
     2  0  0.50     -2630.2869   2.0000                                                             
     2  1  1.50     -2348.4045   6.0000                                                             
     3  0  0.50      -438.8756   2.0000                                                             
     3  1  1.50      -346.7587   6.0000                                                             
     3  2  2.50      -196.2559  10.0000                                                             
     4  0  0.50       -58.3859   2.0000                                                             
     4  1  1.50       -34.5141   6.0000                                                             
     4  2  2.50        -3.0408   4.0000                                                             
     5  0  0.50        -3.9816   1.0000                                                             
     4  3  2.50        -1.3606   0.0000                                                             
   Description                                                                                      
     l       E           TYP  RCUT    TYP  RCUT                                                     
     1    -34.5140617     23  2.600                                                                 
     1     -1.3605826     23  2.600                                                                 
     2     -3.0407924     23  2.600                                                                 
     2     -1.4463597     23  2.600                                                                 
     0     -3.9816219     23  2.750                                                                 
     0     20.4087390     23  2.750                                                                 
  local pseudopotential read in
  partial core-charges read in
  partial kinetic energy density read in
  atomic valenz-charges read in
  non local Contribution for L=           1  read in
    real space projection operators read in
  non local Contribution for L=           1  read in
    real space projection operators read in
  non local Contribution for L=           2  read in
    real space projection operators read in
  non local Contribution for L=           2  read in
    real space projection operators read in
  non local Contribution for L=           0  read in
    real space projection operators read in
  non local Contribution for L=           0  read in
    real space projection operators read in
    PAW grid and wavefunctions read in
 
   number of l-projection  operators is LMAX  =           6
   number of lm-projection operators is LMMAX =          18
 
 POTCAR:    PAW_PBE Sb 06Sep2000                  
   VRHFIN =Sb: s2p3                                                                                 
   LEXCH  = PE                                                                                      
   EATOM  =   149.9515 eV,   11.0211 Ry                                                             
                                                                                                    
   TITEL  = PAW_PBE Sb 06Sep2000                                                                    
   LULTRA =        F    use ultrasoft PP ?                                                          
   IUNSCR =        1    unscreen: 0-lin 1-nonlin 2-no                                               
   RPACOR =    2.200    partial core radius                                                         
   POMASS =  121.750; ZVAL   =    5.000    mass and valenz                                          
   RCORE  =    2.300    outmost cutoff radius                                                       
   RWIGS  =    2.980; RWIGS  =    1.577    wigner-seitz radius (au A)                               
   ENMAX  =  172.069; ENMIN  =  129.052 eV                                                          
   ICORE  =        3    local potential                                                             
   LCOR   =        T    correct aug charges                                                         
   LPAW   =        T    paw PP                                                                      
   EAUG   =  380.513                                                                                
   DEXC   =    0.000                                                                                
   RMAX   =    2.346    core radius for proj-oper                                                   
   RAUG   =    1.300    factor for augmentation sphere                                              
   RDEP   =    2.360    radius for radial grids                                                     
   RDEPT  =    2.192    core radius for aug-charge                                                  
                                                                                                    
   Atomic configuration                                                                             
   13 entries                                                                                       
     n  l   j            E        occ.                                                              
     1  0  0.50    -30298.2797   2.0000                                                             
     2  0  0.50     -4610.2252   2.0000                                                             
     2  1  1.50     -4138.3407   6.0000                                                             
     3  0  0.50      -903.8815   2.0000                                                             
     3  1  1.50      -750.1337   6.0000                                                             
     3  2  2.50      -515.7092  10.0000                                                             
     4  0  0.50      -148.8034   2.0000                                                             
     4  1  1.50      -101.7581   6.0000                                                             
     4  2  2.50       -33.5048  10.0000                                                             
     5  0  0.50       -12.8298   2.0000                                                             
     5  1  0.50        -4.8276   3.0000                                                             
     5  2  1.50        -4.0817   0.0000                                                             
     4  3  2.50        -4.0817   0.0000                                                             
   Description                                                                                      
     l       E           TYP  RCUT    TYP  RCUT                                                     
     0    -12.8297861     23  2.300                                                                 
     0     13.6058260     23  2.300                                                                 
     1     -4.8275512     23  2.300                                                                 
     1     -0.7245443     23  2.300                                                                 
     2     -4.0817478     23  2.300                                                                 
     3     -1.3605826     23  2.300                                                                 
  local pseudopotential read in
  partial core-charges read in
  partial kinetic energy density read in
  atomic valenz-charges read in
  non local Contribution for L=           0  read in
    real space projection operators read in
  non local Contribution for L=           0  read in
    real space projection operators read in
  non local Contribution for L=           1  read in
    real space projection operators read in
  non local Contribution for L=           1  read in
    real space projection operators read in
  non local Contribution for L=           2  read in
    real space projection operators read in
    PAW grid and wavefunctions read in
 
   number of l-projection  operators is LMAX  =           5
   number of lm-projection operators is LMMAX =          13
 
  PAW_PBE Fe 06Sep2000                  :
 energy of atom  1       EATOM= -594.3153
 kinetic energy error for atom=    0.0026 (will be added to EATOM!!)
  PAW_PBE Nb_pv 08Apr2002               :
 energy of atom  2       EATOM=-1043.3917
 kinetic energy error for atom=    0.0011 (will be added to EATOM!!)
  PAW_PBE Sb 06Sep2000                  :
 energy of atom  3       EATOM= -149.9515
 kinetic energy error for atom=    0.0005 (will be added to EATOM!!)
 
 
 POSCAR: Fe1 Nb1 Sb1
  positions in direct lattice
  velocities in cartesian coordinates
 exchange correlation table for  LEXCH =        8
   RHO(1)=    0.500       N(1)  =     2000
   RHO(2)=  100.500       N(2)  =     4000
 


--------------------------------------------------------------------------------------------------------


 ion  position               nearest neighbor table
   1  0.750  0.750  0.750-   3 2.56   2 2.56   3 2.56   2 2.56   3 2.56   2 2.56   3 2.56   2 2.56

   2  0.000  0.000  0.000-   1 2.56   1 2.56   1 2.56   1 2.56   3 2.96   3 2.96   3 2.96   3 2.96
                             3 2.96   3 2.96
   3  0.500  0.500  0.500-   1 2.56   1 2.56   1 2.56   1 2.56   2 2.96   2 2.96   2 2.96   2 2.96
                             2 2.96   2 2.96
 
  LATTYP: Found a face centered cubic cell.
 ALAT       =     5.9129752745
  
  Lattice vectors:
  
 A1 = (   0.0000000000,   2.9564876373,   2.9564876373)
 A2 = (   2.9564876373,   0.0000000000,   2.9564876373)
 A3 = (   2.9564876373,   2.9564876373,   0.0000000000)


Analysis of symmetry for initial positions (statically):
=====================================================================
 Subroutine PRICEL returns:
 Original cell was already a primitive cell.
 

 Routine SETGRP: Setting up the symmetry group for a 
 face centered cubic supercell.


 Subroutine GETGRP returns: Found 24 space group operations
 (whereof 24 operations were pure point group operations)
 out of a pool of 48 trial point group operations.


The static configuration has the point symmetry T_d .


Analysis of symmetry for dynamics (positions and initial velocities):
=====================================================================
 Subroutine PRICEL returns:
 Original cell was already a primitive cell.
 

 Routine SETGRP: Setting up the symmetry group for a 
 face centered cubic supercell.


 Subroutine GETGRP returns: Found 24 space group operations
 (whereof 24 operations were pure point group operations)
 out of a pool of 48 trial point group operations.


The dynamic configuration has the point symmetry T_d .


 Subroutine INISYM returns: Found 24 space group operations
 (whereof 24 operations are pure point group operations),
 and found     1 'primitive' translations


----------------------------------------------------------------------------------------

                                     Primitive cell                                     

  volume of cell :      51.6842

  direct lattice vectors                    reciprocal lattice vectors
     0.000000000  2.956487637  2.956487637    -0.169119598  0.169119598  0.169119598
     2.956487637  0.000000000  2.956487637     0.169119598 -0.169119598  0.169119598
     2.956487637  2.956487637  0.000000000     0.169119598  0.169119598 -0.169119598

  length of vectors
     4.181104914  4.181104914  4.181104914     0.292923736  0.292923736  0.292923736

  position of ions in fractional coordinates (direct lattice)
     0.750000000  0.750000000  0.750000000
     0.000000000  0.000000000  0.000000000
     0.500000000  0.500000000  0.500000000

  ion indices of the primitive-cell ions
   primitive index   ion index
                 1           1
                 2           2
                 3           3

----------------------------------------------------------------------------------------

 
 
 KPOINTS: KPOINTS                                 

Automatic generation of k-mesh.
 Grid dimensions read from file:
 generate k-points for:   44   44   44

 Generating k-lattice:

  Cartesian coordinates                     Fractional coordinates (reciprocal lattice)
    -0.003843627  0.003843627  0.003843627     0.022727273  0.000000000 -0.000000000
     0.003843627 -0.003843627  0.003843627     0.000000000  0.022727273  0.000000000
     0.003843627  0.003843627 -0.003843627    -0.000000000 -0.000000000  0.022727273

  Length of vectors
     0.006657358  0.006657358  0.006657358

  Shift w.r.t. Gamma in fractional coordinates (k-lattice)
     0.000000000  0.000000000  0.000000000

 
 Subroutine IBZKPT returns following result:
 ===========================================
 
 Found   2168 irreducible k-points:
 
 Following reciprocal coordinates:
            Coordinates               Weight
  0.000000  0.000000  0.000000      1.000000
  0.022727 -0.000000  0.000000      8.000000
  0.045455  0.000000  0.000000      8.000000
  0.068182 -0.000000  0.000000      8.000000
  0.090909  0.000000  0.000000      8.000000
  0.113636 -0.000000  0.000000      8.000000
  0.136364  0.000000  0.000000      8.000000
  0.159091 -0.000000  0.000000      8.000000
  0.181818  0.000000  0.000000      8.000000
  0.204545 -0.000000 -0.000000      8.000000
  0.227273  0.000000  0.000000      8.000000
  0.250000  0.000000 -0.000000      8.000000
  0.272727 -0.000000  0.000000      8.000000
  0.295455  0.000000 -0.000000      8.000000
  0.318182 -0.000000  0.000000      8.000000
  0.340909  0.000000  0.000000      8.000000
  0.363636 -0.000000  0.000000      8.000000
  0.386364  0.000000  0.000000      8.000000
  0.409091 -0.000000 -0.000000      8.000000
  0.431818  0.000000 -0.000000      8.000000
  0.454545 -0.000000  0.000000      8.000000
  0.477273  0.000000  0.000000      8.000000
  0.500000  0.000000 -0.000000      4.000000
  0.022727  0.022727  0.000000      6.000000
  0.045455  0.022727  0.000000     24.000000
  0.068182  0.022727  0.000000     24.000000
  0.090909  0.022727  0.000000     24.000000
  0.113636  0.022727  0.000000     24.000000
  0.136364  0.022727  0.000000     24.000000
  0.159091  0.022727  0.000000     24.000000
  0.181818  0.022727  0.000000     24.000000
  0.204545  0.022727  0.000000     24.000000
  0.227273  0.022727  0.000000     24.000000
  0.250000  0.022727  0.000000     24.000000
  0.272727  0.022727 -0.000000     24.000000
  0.295455  0.022727  0.000000     24.000000
  0.318182  0.022727 -0.000000     24.000000
  0.340909  0.022727  0.000000     24.000000
  0.363636  0.022727 -0.000000     24.000000
  0.386364  0.022727  0.000000     24.000000
  0.409091  0.022727  0.000000     24.000000
  0.431818  0.022727  0.000000     24.000000
  0.454545  0.022727 -0.000000     24.000000
  0.477273  0.022727  0.000000     24.000000
  0.500000  0.022727  0.000000     24.000000
 -0.477273  0.022727  0.000000     24.000000
 -0.454545  0.022727 -0.000000     24.000000
 -0.431818  0.022727 -0.000000     24.000000
 -0.409091  0.022727 -0.000000     24.000000
 -0.386364  0.022727 -0.000000     24.000000
 -0.363636  0.022727 -0.000000     24.000000
 -0.340909  0.022727 -0.000000     24.000000
 -0.318182  0.022727  0.000000     24.000000
 -0.295455  0.022727 -0.000000     24.000000
 -0.272727  0.022727 -0.000000     24.000000
 -0.250000  0.022727  0.000000     24.000000
 -0.227273  0.022727  0.000000     24.000000
 -0.204545  0.022727 -0.000000     24.000000
 -0.181818  0.022727 -0.000000     24.000000
 -0.159091  0.022727 -0.000000     24.000000
 -0.136364  0.022727 -0.000000     24.000000
 -0.113636  0.022727  0.000000     24.000000
 -0.090909  0.022727  0.000000     24.000000
 -0.068182  0.022727 -0.000000     24.000000
 -0.045455  0.022727 -0.000000     24.000000
 -0.022727  0.022727 -0.000000     12.000000
  0.045455  0.045455  0.000000      6.000000
  0.068182  0.045455  0.000000     24.000000
  0.090909  0.045455  0.000000     24.000000
  0.113636  0.045455  0.000000     24.000000
  0.136364  0.045455  0.000000     24.000000
  0.159091  0.045455  0.000000     24.000000
  0.181818  0.045455  0.000000     24.000000
  0.204545  0.045455  0.000000     24.000000
  0.227273  0.045455  0.000000     24.000000
  0.250000  0.045455  0.000000     24.000000
  0.272727  0.045455  0.000000     24.000000
  0.295455  0.045455 -0.000000     24.000000
  0.318182  0.045455  0.000000     24.000000
  0.340909  0.045455 -0.000000     24.000000
  0.363636  0.045455  0.000000     24.000000
  0.386364  0.045455 -0.000000     24.000000
  0.409091  0.045455  0.000000     24.000000
  0.431818  0.045455  0.000000     24.000000
  0.454545  0.045455  0.000000     24.000000
  0.477273  0.045455 -0.000000     24.000000
  0.500000  0.045455  0.000000     24.000000
 -0.477273  0.045455  0.000000     24.000000
 -0.454545  0.045455  0.000000     24.000000
 -0.431818  0.045455  0.000000     24.000000
 -0.409091  0.045455 -0.000000     24.000000
 -0.386364  0.045455 -0.000000     24.000000
 -0.363636  0.045455 -0.000000     24.000000
 -0.340909  0.045455 -0.000000     24.000000
 -0.318182  0.045455 -0.000000     24.000000
 -0.295455  0.045455 -0.000000     24.000000
 -0.272727  0.045455  0.000000     24.000000
 -0.250000  0.045455  0.000000     24.000000
 -0.227273  0.045455  0.000000     24.000000
 -0.204545  0.045455  0.000000     24.000000
 -0.181818  0.045455 -0.000000     24.000000
 -0.159091  0.045455 -0.000000     24.000000
 -0.136364  0.045455  0.000000     24.000000
 -0.113636  0.045455  0.000000     24.000000
 -0.090909  0.045455  0.000000     24.000000
 -0.068182  0.045455  0.000000     24.000000
 -0.045455  0.045455 -0.000000     12.000000
  0.068182  0.068182  0.000000      6.000000
  0.090909  0.068182  0.000000     24.000000
  0.113636  0.068182  0.000000     24.000000
  0.136364  0.068182  0.000000     24.000000
  0.159091  0.068182  0.000000     24.000000
  0.181818  0.068182  0.000000     24.000000
  0.204545  0.068182  0.000000     24.000000
  0.227273  0.068182  0.000000     24.000000
  0.250000  0.068182  0.000000     24.000000
  0.272727  0.068182  0.000000     24.000000
  0.295455  0.068182  0.000000     24.000000
  0.318182  0.068182 -0.000000     24.000000
  0.340909  0.068182  0.000000     24.000000
  0.363636  0.068182  0.000000     24.000000
  0.386364  0.068182  0.000000     24.000000
  0.409091  0.068182  0.000000     24.000000
  0.431818  0.068182  0.000000     24.000000
  0.454545  0.068182  0.000000     24.000000
  0.477273  0.068182  0.000000     24.000000
  0.500000  0.068182  0.000000     24.000000
 -0.477273  0.068182  0.000000     24.000000
 -0.454545  0.068182  0.000000     24.000000
 -0.431818  0.068182  0.000000     24.000000
 -0.409091  0.068182  0.000000     24.000000
 -0.386364  0.068182 -0.000000     24.000000
 -0.363636  0.068182  0.000000     24.000000
 -0.340909  0.068182 -0.000000     24.000000
 -0.318182  0.068182 -0.000000     24.000000
 -0.295455  0.068182 -0.000000     24.000000
 -0.272727  0.068182 -0.000000     24.000000
 -0.250000  0.068182 -0.000000     24.000000
 -0.227273  0.068182 -0.000000     24.000000
 -0.204545  0.068182  0.000000     24.000000
 -0.181818  0.068182  0.000000     24.000000
 -0.159091  0.068182 -0.000000     24.000000
 -0.136364  0.068182  0.000000     24.000000
 -0.113636  0.068182 -0.000000     24.000000
 -0.090909  0.068182 -0.000000     24.000000
 -0.068182  0.068182  0.000000     12.000000
  0.090909  0.090909  0.000000      6.000000
  0.113636  0.090909  0.000000     24.000000
  0.136364  0.090909  0.000000     24.000000
  0.159091  0.090909  0.000000     24.000000
  0.181818  0.090909  0.000000     24.000000
  0.204545  0.090909  0.000000     24.000000
  0.227273  0.090909  0.000000     24.000000
  0.250000  0.090909 -0.000000     24.000000
  0.272727  0.090909  0.000000     24.000000
  0.295455  0.090909 -0.000000     24.000000
  0.318182  0.090909  0.000000     24.000000
  0.340909  0.090909 -0.000000     24.000000
  0.363636  0.090909  0.000000     24.000000
  0.386364  0.090909 -0.000000     24.000000
  0.409091  0.090909  0.000000     24.000000
  0.431818  0.090909  0.000000     24.000000
  0.454545  0.090909  0.000000     24.000000
  0.477273  0.090909  0.000000     24.000000
  0.500000  0.090909  0.000000     24.000000
 -0.477273  0.090909 -0.000000     24.000000
 -0.454545  0.090909 -0.000000     24.000000
 -0.431818  0.090909  0.000000     24.000000
 -0.409091  0.090909  0.000000     24.000000
 -0.386364  0.090909  0.000000     24.000000
 -0.363636  0.090909 -0.000000     24.000000
 -0.340909  0.090909 -0.000000     24.000000
 -0.318182  0.090909 -0.000000     24.000000
 -0.295455  0.090909 -0.000000     24.000000
 -0.272727  0.090909 -0.000000     24.000000
 -0.250000  0.090909  0.000000     24.000000
 -0.227273  0.090909 -0.000000     24.000000
 -0.204545  0.090909 -0.000000     24.000000
 -0.181818  0.090909  0.000000     24.000000
 -0.159091  0.090909  0.000000     24.000000
 -0.136364  0.090909  0.000000     24.000000
 -0.113636  0.090909  0.000000     24.000000
 -0.090909  0.090909  0.000000     12.000000
  0.113636  0.113636  0.000000      6.000000
  0.136364  0.113636  0.000000     24.000000
  0.159091  0.113636  0.000000     24.000000
  0.181818  0.113636  0.000000     24.000000
  0.204545  0.113636  0.000000     24.000000
  0.227273  0.113636  0.000000     24.000000
  0.250000  0.113636 -0.000000     24.000000
  0.272727  0.113636  0.000000     24.000000
  0.295455  0.113636  0.000000     24.000000
  0.318182  0.113636  0.000000     24.000000
  0.340909  0.113636  0.000000     24.000000
  0.363636  0.113636  0.000000     24.000000
  0.386364  0.113636  0.000000     24.000000
  0.409091  0.113636  0.000000     24.000000
  0.431818  0.113636  0.000000     24.000000
  0.454545  0.113636  0.000000     24.000000
  0.477273  0.113636  0.000000     24.000000
  0.500000  0.113636  0.000000     24.000000
 -0.477273  0.113636 -0.000000     24.000000
 -0.454545  0.113636 -0.000000     24.000000
 -0.431818  0.113636  0.000000     24.000000
 -0.409091  0.113636  0.000000     24.000000
 -0.386364  0.113636  0.000000     24.000000
 -0.363636  0.113636 -0.000000     24.000000
 -0.340909  0.113636 -0.000000     24.000000
 -0.318182  0.113636 -0.000000     24.000000
 -0.295455  0.113636 -0.000000     24.000000
 -0.272727  0.113636 -0.000000     24.000000
 -0.250000  0.113636 -0.000000     24.000000
 -0.227273  0.113636 -0.000000     24.000000
 -0.204545  0.113636  0.000000     24.000000
 -0.181818  0.113636 -0.000000     24.000000
 -0.159091  0.113636  0.000000     24.000000
 -0.136364  0.113636  0.000000     24.000000
 -0.113636  0.113636  0.000000     12.000000
  0.136364  0.136364  0.000000      6.000000
  0.159091  0.136364  0.000000     24.000000
  0.181818  0.136364  0.000000     24.000000
  0.204545  0.136364  0.000000     24.000000
  0.227273  0.136364  0.000000     24.000000
  0.250000  0.136364  0.000000     24.000000
  0.272727  0.136364  0.000000     24.000000
  0.295455  0.136364  0.000000     24.000000
  0.318182  0.136364  0.000000     24.000000
  0.340909  0.136364  0.000000     24.000000
  0.363636  0.136364  0.000000     24.000000
  0.386364  0.136364  0.000000     24.000000
  0.409091  0.136364 -0.000000     24.000000
  0.431818  0.136364  0.000000     24.000000
  0.454545  0.136364  0.000000     24.000000
  0.477273  0.136364 -0.000000     24.000000
  0.500000  0.136364  0.000000     24.000000
 -0.477273  0.136364  0.000000     24.000000
 -0.454545  0.136364 -0.000000     24.000000
 -0.431818  0.136364 -0.000000     24.000000
 -0.409091  0.136364  0.000000     24.000000
 -0.386364  0.136364  0.000000     24.000000
 -0.363636  0.136364  0.000000     24.000000
 -0.340909  0.136364  0.000000     24.000000
 -0.318182  0.136364  0.000000     24.000000
 -0.295455  0.136364 -0.000000     24.000000
 -0.272727  0.136364 -0.000000     24.000000
 -0.250000  0.136364 -0.000000     24.000000
 -0.227273  0.136364  0.000000     24.000000
 -0.204545  0.136364 -0.000000     24.000000
 -0.181818  0.136364  0.000000     24.000000
 -0.159091  0.136364  0.000000     24.000000
 -0.136364  0.136364  0.000000     12.000000
  0.159091  0.159091  0.000000      6.000000
  0.181818  0.159091  0.000000     24.000000
  0.204545  0.159091  0.000000     24.000000
  0.227273  0.159091  0.000000     24.000000
  0.250000  0.159091  0.000000     24.000000
  0.272727  0.159091  0.000000     24.000000
  0.295455  0.159091  0.000000     24.000000
  0.318182  0.159091  0.000000     24.000000
  0.340909  0.159091  0.000000     24.000000
  0.363636  0.159091  0.000000     24.000000
  0.386364  0.159091  0.000000     24.000000
  0.409091  0.159091 -0.000000     24.000000
  0.431818  0.159091  0.000000     24.000000
  0.454545  0.159091  0.000000     24.000000
  0.477273  0.159091  0.000000     24.000000
  0.500000  0.159091  0.000000     24.000000
 -0.477273  0.159091  0.000000     24.000000
 -0.454545  0.159091  0.000000     24.000000
 -0.431818  0.159091 -0.000000     24.000000
 -0.409091  0.159091  0.000000     24.000000
 -0.386364  0.159091  0.000000     24.000000
 -0.363636  0.159091  0.000000     24.000000
 -0.340909  0.159091  0.000000     24.000000
 -0.318182  0.159091  0.000000     24.000000
 -0.295455  0.159091  0.000000     24.000000
 -0.272727  0.159091 -0.000000     24.000000
 -0.250000  0.159091 -0.000000     24.000000
 -0.227273  0.159091  0.000000     24.000000
 -0.204545  0.159091  0.000000     24.000000
 -0.181818  0.159091  0.000000     24.000000
 -0.159091  0.159091  0.000000     12.000000
  0.181818  0.181818  0.000000      6.000000
  0.204545  0.181818  0.000000     24.000000
  0.227273  0.181818  0.000000     24.000000
  0.250000  0.181818  0.000000     24.000000
  0.272727  0.181818  0.000000     24.000000
  0.295455  0.181818  0.000000     24.000000
  0.318182  0.181818  0.000000     24.000000
  0.340909  0.181818  0.000000     24.000000
  0.363636  0.181818  0.000000     24.000000
  0.386364  0.181818  0.000000     24.000000
  0.409091  0.181818  0.000000     24.000000
  0.431818  0.181818 -0.000000     24.000000
  0.454545  0.181818  0.000000     24.000000
  0.477273  0.181818 -0.000000     24.000000
  0.500000  0.181818 -0.000000     24.000000
 -0.477273  0.181818  0.000000     24.000000
 -0.454545  0.181818 -0.000000     24.000000
 -0.431818  0.181818  0.000000     24.000000
 -0.409091  0.181818 -0.000000     24.000000
 -0.386364  0.181818 -0.000000     24.000000
 -0.363636  0.181818  0.000000     24.000000
 -0.340909  0.181818 -0.000000     24.000000
 -0.318182  0.181818  0.000000     24.000000
 -0.295455  0.181818  0.000000     24.000000
 -0.272727  0.181818  0.000000     24.000000
 -0.250000  0.181818  0.000000     24.000000
 -0.227273  0.181818  0.000000     24.000000
 -0.204545  0.181818  0.000000     24.000000
 -0.181818  0.181818  0.000000     12.000000
  0.204545  0.204545  0.000000      6.000000
  0.227273  0.204545  0.000000     24.000000
  0.250000  0.204545  0.000000     24.000000
  0.272727  0.204545  0.000000     24.000000
  0.295455  0.204545  0.000000     24.000000
  0.318182  0.204545  0.000000     24.000000
  0.340909  0.204545  0.000000     24.000000
  0.363636  0.204545  0.000000     24.000000
  0.386364  0.204545  0.000000     24.000000
  0.409091  0.204545  0.000000     24.000000
  0.431818  0.204545  0.000000     24.000000
  0.454545  0.204545 -0.000000     24.000000
  0.477273  0.204545  0.000000     24.000000
  0.500000  0.204545  0.000000     24.000000
 -0.477273  0.204545  0.000000     24.000000
 -0.454545  0.204545 -0.000000     24.000000
 -0.431818  0.204545 -0.000000     24.000000
 -0.409091  0.204545 -0.000000     24.000000
 -0.386364  0.204545  0.000000     24.000000
 -0.363636  0.204545 -0.000000     24.000000
 -0.340909  0.204545  0.000000     24.000000
 -0.318182  0.204545  0.000000     24.000000
 -0.295455  0.204545  0.000000     24.000000
 -0.272727  0.204545  0.000000     24.000000
 -0.250000  0.204545 -0.000000     24.000000
 -0.227273  0.204545  0.000000     24.000000
 -0.204545  0.204545  0.000000     12.000000
  0.227273  0.227273  0.000000      6.000000
  0.250000  0.227273  0.000000     24.000000
  0.272727  0.227273  0.000000     24.000000
  0.295455  0.227273  0.000000     24.000000
  0.318182  0.227273  0.000000     24.000000
  0.340909  0.227273  0.000000     24.000000
  0.363636  0.227273  0.000000     24.000000
  0.386364  0.227273  0.000000     24.000000
  0.409091  0.227273  0.000000     24.000000
  0.431818  0.227273  0.000000     24.000000
  0.454545  0.227273  0.000000     24.000000
  0.477273  0.227273  0.000000     24.000000
  0.500000  0.227273  0.000000     24.000000
 -0.477273  0.227273 -0.000000     24.000000
 -0.454545  0.227273  0.000000     24.000000
 -0.431818  0.227273 -0.000000     24.000000
 -0.409091  0.227273 -0.000000     24.000000
 -0.386364  0.227273  0.000000     24.000000
 -0.363636  0.227273 -0.000000     24.000000
 -0.340909  0.227273 -0.000000     24.000000
 -0.318182  0.227273  0.000000     24.000000
 -0.295455  0.227273  0.000000     24.000000
 -0.272727  0.227273  0.000000     24.000000
 -0.250000  0.227273  0.000000     24.000000
 -0.227273  0.227273  0.000000     12.000000
  0.250000  0.250000  0.000000      6.000000
  0.272727  0.250000  0.000000     24.000000
  0.295455  0.250000  0.000000     24.000000
  0.318182  0.250000  0.000000     24.000000
  0.340909  0.250000  0.000000     24.000000
  0.363636  0.250000  0.000000     24.000000
  0.386364  0.250000  0.000000     24.000000
  0.409091  0.250000  0.000000     24.000000
  0.431818  0.250000  0.000000     24.000000
  0.454545  0.250000  0.000000     24.000000
  0.477273  0.250000  0.000000     24.000000
  0.500000  0.250000 -0.000000     24.000000
 -0.477273  0.250000  0.000000     24.000000
 -0.454545  0.250000 -0.000000     24.000000
 -0.431818  0.250000 -0.000000     24.000000
 -0.409091  0.250000  0.000000     24.000000
 -0.386364  0.250000  0.000000     24.000000
 -0.363636  0.250000  0.000000     24.000000
 -0.340909  0.250000  0.000000     24.000000
 -0.318182  0.250000 -0.000000     24.000000
 -0.295455  0.250000  0.000000     24.000000
 -0.272727  0.250000  0.000000     24.000000
 -0.250000  0.250000  0.000000     12.000000
  0.272727  0.272727  0.000000      6.000000
  0.295455  0.272727  0.000000     24.000000
  0.318182  0.272727  0.000000     24.000000
  0.340909  0.272727  0.000000     24.000000
  0.363636  0.272727  0.000000     24.000000
  0.386364  0.272727  0.000000     24.000000
  0.409091  0.272727  0.000000     24.000000
  0.431818  0.272727  0.000000     24.000000
  0.454545  0.272727  0.000000     24.000000
  0.477273  0.272727  0.000000     24.000000
  0.500000  0.272727  0.000000     24.000000
 -0.477273  0.272727  0.000000     24.000000
 -0.454545  0.272727 -0.000000     24.000000
 -0.431818  0.272727 -0.000000     24.000000
 -0.409091  0.272727  0.000000     24.000000
 -0.386364  0.272727  0.000000     24.000000
 -0.363636  0.272727  0.000000     24.000000
 -0.340909  0.272727  0.000000     24.000000
 -0.318182  0.272727 -0.000000     24.000000
 -0.295455  0.272727 -0.000000     24.000000
 -0.272727  0.272727  0.000000     12.000000
  0.295455  0.295455  0.000000      6.000000
  0.318182  0.295455  0.000000     24.000000
  0.340909  0.295455  0.000000     24.000000
  0.363636  0.295455  0.000000     24.000000
  0.386364  0.295455  0.000000     24.000000
  0.409091  0.295455  0.000000     24.000000
  0.431818  0.295455  0.000000     24.000000
  0.454545  0.295455  0.000000     24.000000
  0.477273  0.295455  0.000000     24.000000
  0.500000  0.295455  0.000000     24.000000
 -0.477273  0.295455 -0.000000     24.000000
 -0.454545  0.295455  0.000000     24.000000
 -0.431818  0.295455 -0.000000     24.000000
 -0.409091  0.295455 -0.000000     24.000000
 -0.386364  0.295455  0.000000     24.000000
 -0.363636  0.295455  0.000000     24.000000
 -0.340909  0.295455  0.000000     24.000000
 -0.318182  0.295455  0.000000     24.000000
 -0.295455  0.295455  0.000000     12.000000
  0.318182  0.318182  0.000000      6.000000
  0.340909  0.318182  0.000000     24.000000
  0.363636  0.318182  0.000000     24.000000
  0.386364  0.318182  0.000000     24.000000
  0.409091  0.318182  0.000000     24.000000
  0.431818  0.318182  0.000000     24.000000
  0.454545  0.318182  0.000000     24.000000
  0.477273  0.318182  0.000000     24.000000
  0.500000  0.318182  0.000000     24.000000
 -0.477273  0.318182  0.000000     24.000000
 -0.454545  0.318182 -0.000000     24.000000
 -0.431818  0.318182  0.000000     24.000000
 -0.409091  0.318182  0.000000     24.000000
 -0.386364  0.318182 -0.000000     24.000000
 -0.363636  0.318182 -0.000000     24.000000
 -0.340909  0.318182  0.000000     24.000000
 -0.318182  0.318182  0.000000     12.000000
  0.340909  0.340909  0.000000      6.000000
  0.363636  0.340909  0.000000     24.000000
  0.386364  0.340909  0.000000     24.000000
  0.409091  0.340909  0.000000     24.000000
  0.431818  0.340909  0.000000     24.000000
  0.454545  0.340909  0.000000     24.000000
  0.477273  0.340909  0.000000     24.000000
  0.500000  0.340909  0.000000     24.000000
 -0.477273  0.340909  0.000000     24.000000
 -0.454545  0.340909  0.000000     24.000000
 -0.431818  0.340909 -0.000000     24.000000
 -0.409091  0.340909  0.000000     24.000000
 -0.386364  0.340909  0.000000     24.000000
 -0.363636  0.340909 -0.000000     24.000000
 -0.340909  0.340909  0.000000     12.000000
  0.363636  0.363636  0.000000      6.000000
  0.386364  0.363636  0.000000     24.000000
  0.409091  0.363636  0.000000     24.000000
  0.431818  0.363636  0.000000     24.000000
  0.454545  0.363636  0.000000     24.000000
  0.477273  0.363636  0.000000     24.000000
  0.500000  0.363636  0.000000     24.000000
 -0.477273  0.363636  0.000000     24.000000
 -0.454545  0.363636  0.000000     24.000000
 -0.431818  0.363636  0.000000     24.000000
 -0.409091  0.363636  0.000000     24.000000
 -0.386364  0.363636  0.000000     24.000000
 -0.363636  0.363636  0.000000     12.000000
  0.386364  0.386364  0.000000      6.000000
  0.409091  0.386364  0.000000     24.000000
  0.431818  0.386364  0.000000     24.000000
  0.454545  0.386364  0.000000     24.000000
  0.477273  0.386364  0.000000     24.000000
  0.500000  0.386364  0.000000     24.000000
 -0.477273  0.386364  0.000000     24.000000
 -0.454545  0.386364 -0.000000     24.000000
 -0.431818  0.386364  0.000000     24.000000
 -0.409091  0.386364 -0.000000     24.000000
 -0.386364  0.386364 -0.000000     12.000000
  0.409091  0.409091  0.000000      6.000000
  0.431818  0.409091  0.000000     24.000000
  0.454545  0.409091  0.000000     24.000000
  0.477273  0.409091  0.000000     24.000000
  0.500000  0.409091  0.000000     24.000000
 -0.477273  0.409091  0.000000     24.000000
 -0.454545  0.409091  0.000000     24.000000
 -0.431818  0.409091 -0.000000     24.000000
 -0.409091  0.409091  0.000000     12.000000
  0.431818  0.431818  0.000000      6.000000
  0.454545  0.431818  0.000000     24.000000
  0.477273  0.431818  0.000000     24.000000
  0.500000  0.431818  0.000000     24.000000
 -0.477273  0.431818 -0.000000     24.000000
 -0.454545  0.431818  0.000000     24.000000
 -0.431818  0.431818  0.000000     12.000000
  0.454545  0.454545  0.000000      6.000000
  0.477273  0.454545  0.000000     24.000000
  0.500000  0.454545  0.000000     24.000000
 -0.477273  0.454545 -0.000000     24.000000
 -0.454545  0.454545  0.000000     12.000000
  0.477273  0.477273  0.000000      6.000000
  0.500000  0.477273  0.000000     24.000000
 -0.477273  0.477273  0.000000     12.000000
  0.500000  0.500000  0.000000      3.000000
  0.068182  0.045455  0.022727     24.000000
  0.090909  0.045455  0.022727     48.000000
  0.113636  0.045455  0.022727     48.000000
  0.136364  0.045455  0.022727     48.000000
  0.159091  0.045455  0.022727     48.000000
  0.181818  0.045455  0.022727     48.000000
  0.204545  0.045455  0.022727     48.000000
  0.227273  0.045455  0.022727     48.000000
  0.250000  0.045455  0.022727     48.000000
  0.272727  0.045455  0.022727     48.000000
  0.295455  0.045455  0.022727     48.000000
  0.318182  0.045455  0.022727     48.000000
  0.340909  0.045455  0.022727     48.000000
  0.363636  0.045455  0.022727     48.000000
  0.386364  0.045455  0.022727     48.000000
  0.409091  0.045455  0.022727     48.000000
  0.431818  0.045455  0.022727     48.000000
  0.454545  0.045455  0.022727     48.000000
  0.477273  0.045455  0.022727     48.000000
  0.500000  0.045455  0.022727     48.000000
 -0.477273  0.045455  0.022727     24.000000
  0.090909  0.068182  0.022727     24.000000
  0.113636  0.068182  0.022727     48.000000
  0.136364  0.068182  0.022727     48.000000
  0.159091  0.068182  0.022727     48.000000
  0.181818  0.068182  0.022727     48.000000
  0.204545  0.068182  0.022727     48.000000
  0.227273  0.068182  0.022727     48.000000
  0.250000  0.068182  0.022727     48.000000
  0.272727  0.068182  0.022727     48.000000
  0.295455  0.068182  0.022727     48.000000
  0.318182  0.068182  0.022727     48.000000
  0.340909  0.068182  0.022727     48.000000
  0.363636  0.068182  0.022727     48.000000
  0.386364  0.068182  0.022727     48.000000
  0.409091  0.068182  0.022727     48.000000
  0.431818  0.068182  0.022727     48.000000
  0.454545  0.068182  0.022727     48.000000
  0.477273  0.068182  0.022727     48.000000
  0.500000  0.068182  0.022727     48.000000
 -0.477273  0.068182  0.022727     48.000000
 -0.454545  0.068182  0.022727     48.000000
 -0.431818  0.068182  0.022727     48.000000
 -0.409091  0.068182  0.022727     48.000000
 -0.386364  0.068182  0.022727     48.000000
 -0.363636  0.068182  0.022727     48.000000
 -0.340909  0.068182  0.022727     48.000000
 -0.318182  0.068182  0.022727     48.000000
 -0.295455  0.068182  0.022727     48.000000
 -0.272727  0.068182  0.022727     48.000000
 -0.250000  0.068182  0.022727     48.000000
 -0.227273  0.068182  0.022727     48.000000
 -0.204545  0.068182  0.022727     48.000000
 -0.181818  0.068182  0.022727     48.000000
 -0.159091  0.068182  0.022727     48.000000
 -0.136364  0.068182  0.022727     48.000000
 -0.113636  0.068182  0.022727     48.000000
 -0.090909  0.068182  0.022727     48.000000
 -0.068182  0.068182  0.022727     48.000000
 -0.045455  0.068182  0.022727     24.000000
  0.113636  0.090909  0.022727     24.000000
  0.136364  0.090909  0.022727     48.000000
  0.159091  0.090909  0.022727     48.000000
  0.181818  0.090909  0.022727     48.000000
  0.204545  0.090909  0.022727     48.000000
  0.227273  0.090909  0.022727     48.000000
  0.250000  0.090909  0.022727     48.000000
  0.272727  0.090909  0.022727     48.000000
  0.295455  0.090909  0.022727     48.000000
  0.318182  0.090909  0.022727     48.000000
  0.340909  0.090909  0.022727     48.000000
  0.363636  0.090909  0.022727     48.000000
  0.386364  0.090909  0.022727     48.000000
  0.409091  0.090909  0.022727     48.000000
  0.431818  0.090909  0.022727     48.000000
  0.454545  0.090909  0.022727     48.000000
  0.477273  0.090909  0.022727     48.000000
  0.500000  0.090909  0.022727     48.000000
 -0.477273  0.090909  0.022727     48.000000
 -0.454545  0.090909  0.022727     48.000000
 -0.431818  0.090909  0.022727     48.000000
 -0.409091  0.090909  0.022727     48.000000
 -0.386364  0.090909  0.022727     48.000000
 -0.363636  0.090909  0.022727     48.000000
 -0.340909  0.090909  0.022727     48.000000
 -0.318182  0.090909  0.022727     48.000000
 -0.295455  0.090909  0.022727     48.000000
 -0.272727  0.090909  0.022727     48.000000
 -0.250000  0.090909  0.022727     48.000000
 -0.227273  0.090909  0.022727     48.000000
 -0.204545  0.090909  0.022727     48.000000
 -0.181818  0.090909  0.022727     48.000000
 -0.159091  0.090909  0.022727     48.000000
 -0.136364  0.090909  0.022727     48.000000
 -0.113636  0.090909  0.022727     48.000000
 -0.090909  0.090909  0.022727     48.000000
 -0.068182  0.090909  0.022727     24.000000
  0.136364  0.113636  0.022727     24.000000
  0.159091  0.113636  0.022727     48.000000
  0.181818  0.113636  0.022727     48.000000
  0.204545  0.113636  0.022727     48.000000
  0.227273  0.113636  0.022727     48.000000
  0.250000  0.113636  0.022727     48.000000
  0.272727  0.113636  0.022727     48.000000
  0.295455  0.113636  0.022727     48.000000
  0.318182  0.113636  0.022727     48.000000
  0.340909  0.113636  0.022727     48.000000
  0.363636  0.113636  0.022727     48.000000
  0.386364  0.113636  0.022727     48.000000
  0.409091  0.113636  0.022727     48.000000
  0.431818  0.113636  0.022727     48.000000
  0.454545  0.113636  0.022727     48.000000
  0.477273  0.113636  0.022727     48.000000
  0.500000  0.113636  0.022727     48.000000
 -0.477273  0.113636  0.022727     48.000000
 -0.454545  0.113636  0.022727     48.000000
 -0.431818  0.113636  0.022727     48.000000
 -0.409091  0.113636  0.022727     48.000000
 -0.386364  0.113636  0.022727     48.000000
 -0.363636  0.113636  0.022727     48.000000
 -0.340909  0.113636  0.022727     48.000000
 -0.318182  0.113636  0.022727     48.000000
 -0.295455  0.113636  0.022727     48.000000
 -0.272727  0.113636  0.022727     48.000000
 -0.250000  0.113636  0.022727     48.000000
 -0.227273  0.113636  0.022727     48.000000
 -0.204545  0.113636  0.022727     48.000000
 -0.181818  0.113636  0.022727     48.000000
 -0.159091  0.113636  0.022727     48.000000
 -0.136364  0.113636  0.022727     48.000000
 -0.113636  0.113636  0.022727     48.000000
 -0.090909  0.113636  0.022727     24.000000
  0.159091  0.136364  0.022727     24.000000
  0.181818  0.136364  0.022727     48.000000
  0.204545  0.136364  0.022727     48.000000
  0.227273  0.136364  0.022727     48.000000
  0.250000  0.136364  0.022727     48.000000
  0.272727  0.136364  0.022727     48.000000
  0.295455  0.136364  0.022727     48.000000
  0.318182  0.136364  0.022727     48.000000
  0.340909  0.136364  0.022727     48.000000
  0.363636  0.136364  0.022727     48.000000
  0.386364  0.136364  0.022727     48.000000
  0.409091  0.136364  0.022727     48.000000
  0.431818  0.136364  0.022727     48.000000
  0.454545  0.136364  0.022727     48.000000
  0.477273  0.136364  0.022727     48.000000
  0.500000  0.136364  0.022727     48.000000
 -0.477273  0.136364  0.022727     48.000000
 -0.454545  0.136364  0.022727     48.000000
 -0.431818  0.136364  0.022727     48.000000
 -0.409091  0.136364  0.022727     48.000000
 -0.386364  0.136364  0.022727     48.000000
 -0.363636  0.136364  0.022727     48.000000
 -0.340909  0.136364  0.022727     48.000000
 -0.318182  0.136364  0.022727     48.000000
 -0.295455  0.136364  0.022727     48.000000
 -0.272727  0.136364  0.022727     48.000000
 -0.250000  0.136364  0.022727     48.000000
 -0.227273  0.136364  0.022727     48.000000
 -0.204545  0.136364  0.022727     48.000000
 -0.181818  0.136364  0.022727     48.000000
 -0.159091  0.136364  0.022727     48.000000
 -0.136364  0.136364  0.022727     48.000000
 -0.113636  0.136364  0.022727     24.000000
  0.181818  0.159091  0.022727     24.000000
  0.204545  0.159091  0.022727     48.000000
  0.227273  0.159091  0.022727     48.000000
  0.250000  0.159091  0.022727     48.000000
  0.272727  0.159091  0.022727     48.000000
  0.295455  0.159091  0.022727     48.000000
  0.318182  0.159091  0.022727     48.000000
  0.340909  0.159091  0.022727     48.000000
  0.363636  0.159091  0.022727     48.000000
  0.386364  0.159091  0.022727     48.000000
  0.409091  0.159091  0.022727     48.000000
  0.431818  0.159091  0.022727     48.000000
  0.454545  0.159091  0.022727     48.000000
  0.477273  0.159091  0.022727     48.000000
  0.500000  0.159091  0.022727     48.000000
 -0.477273  0.159091  0.022727     48.000000
 -0.454545  0.159091  0.022727     48.000000
 -0.431818  0.159091  0.022727     48.000000
 -0.409091  0.159091  0.022727     48.000000
 -0.386364  0.159091  0.022727     48.000000
 -0.363636  0.159091  0.022727     48.000000
 -0.340909  0.159091  0.022727     48.000000
 -0.318182  0.159091  0.022727     48.000000
 -0.295455  0.159091  0.022727     48.000000
 -0.272727  0.159091  0.022727     48.000000
 -0.250000  0.159091  0.022727     48.000000
 -0.227273  0.159091  0.022727     48.000000
 -0.204545  0.159091  0.022727     48.000000
 -0.181818  0.159091  0.022727     48.000000
 -0.159091  0.159091  0.022727     48.000000
 -0.136364  0.159091  0.022727     24.000000
  0.204545  0.181818  0.022727     24.000000
  0.227273  0.181818  0.022727     48.000000
  0.250000  0.181818  0.022727     48.000000
  0.272727  0.181818  0.022727     48.000000
  0.295455  0.181818  0.022727     48.000000
  0.318182  0.181818  0.022727     48.000000
  0.340909  0.181818  0.022727     48.000000
  0.363636  0.181818  0.022727     48.000000
  0.386364  0.181818  0.022727     48.000000
  0.409091  0.181818  0.022727     48.000000
  0.431818  0.181818  0.022727     48.000000
  0.454545  0.181818  0.022727     48.000000
  0.477273  0.181818  0.022727     48.000000
  0.500000  0.181818  0.022727     48.000000
 -0.477273  0.181818  0.022727     48.000000
 -0.454545  0.181818  0.022727     48.000000
 -0.431818  0.181818  0.022727     48.000000
 -0.409091  0.181818  0.022727     48.000000
 -0.386364  0.181818  0.022727     48.000000
 -0.363636  0.181818  0.022727     48.000000
 -0.340909  0.181818  0.022727     48.000000
 -0.318182  0.181818  0.022727     48.000000
 -0.295455  0.181818  0.022727     48.000000
 -0.272727  0.181818  0.022727     48.000000
 -0.250000  0.181818  0.022727     48.000000
 -0.227273  0.181818  0.022727     48.000000
 -0.204545  0.181818  0.022727     48.000000
 -0.181818  0.181818  0.022727     48.000000
 -0.159091  0.181818  0.022727     24.000000
  0.227273  0.204545  0.022727     24.000000
  0.250000  0.204545  0.022727     48.000000
  0.272727  0.204545  0.022727     48.000000
  0.295455  0.204545  0.022727     48.000000
  0.318182  0.204545  0.022727     48.000000
  0.340909  0.204545  0.022727     48.000000
  0.363636  0.204545  0.022727     48.000000
  0.386364  0.204545  0.022727     48.000000
  0.409091  0.204545  0.022727     48.000000
  0.431818  0.204545  0.022727     48.000000
  0.454545  0.204545  0.022727     48.000000
  0.477273  0.204545  0.022727     48.000000
  0.500000  0.204545  0.022727     48.000000
 -0.477273  0.204545  0.022727     48.000000
 -0.454545  0.204545  0.022727     48.000000
 -0.431818  0.204545  0.022727     48.000000
 -0.409091  0.204545  0.022727     48.000000
 -0.386364  0.204545  0.022727     48.000000
 -0.363636  0.204545  0.022727     48.000000
 -0.340909  0.204545  0.022727     48.000000
 -0.318182  0.204545  0.022727     48.000000
 -0.295455  0.204545  0.022727     48.000000
 -0.272727  0.204545  0.022727     48.000000
 -0.250000  0.204545  0.022727     48.000000
 -0.227273  0.204545  0.022727     48.000000
 -0.204545  0.204545  0.022727     48.000000
 -0.181818  0.204545  0.022727     24.000000
  0.250000  0.227273  0.022727     24.000000
  0.272727  0.227273  0.022727     48.000000
  0.295455  0.227273  0.022727     48.000000
  0.318182  0.227273  0.022727     48.000000
  0.340909  0.227273  0.022727     48.000000
  0.363636  0.227273  0.022727     48.000000
  0.386364  0.227273  0.022727     48.000000
  0.409091  0.227273  0.022727     48.000000
  0.431818  0.227273  0.022727     48.000000
  0.454545  0.227273  0.022727     48.000000
  0.477273  0.227273  0.022727     48.000000
  0.500000  0.227273  0.022727     48.000000
 -0.477273  0.227273  0.022727     48.000000
 -0.454545  0.227273  0.022727     48.000000
 -0.431818  0.227273  0.022727     48.000000
 -0.409091  0.227273  0.022727     48.000000
 -0.386364  0.227273  0.022727     48.000000
 -0.363636  0.227273  0.022727     48.000000
 -0.340909  0.227273  0.022727     48.000000
 -0.318182  0.227273  0.022727     48.000000
 -0.295455  0.227273  0.022727     48.000000
 -0.272727  0.227273  0.022727     48.000000
 -0.250000  0.227273  0.022727     48.000000
 -0.227273  0.227273  0.022727     48.000000
 -0.204545  0.227273  0.022727     24.000000
  0.272727  0.250000  0.022727     24.000000
  0.295455  0.250000  0.022727     48.000000
  0.318182  0.250000  0.022727     48.000000
  0.340909  0.250000  0.022727     48.000000
  0.363636  0.250000  0.022727     48.000000
  0.386364  0.250000  0.022727     48.000000
  0.409091  0.250000  0.022727     48.000000
  0.431818  0.250000  0.022727     48.000000
  0.454545  0.250000  0.022727     48.000000
  0.477273  0.250000  0.022727     48.000000
  0.500000  0.250000  0.022727     48.000000
 -0.477273  0.250000  0.022727     48.000000
 -0.454545  0.250000  0.022727     48.000000
 -0.431818  0.250000  0.022727     48.000000
 -0.409091  0.250000  0.022727     48.000000
 -0.386364  0.250000  0.022727     48.000000
 -0.363636  0.250000  0.022727     48.000000
 -0.340909  0.250000  0.022727     48.000000
 -0.318182  0.250000  0.022727     48.000000
 -0.295455  0.250000  0.022727     48.000000
 -0.272727  0.250000  0.022727     48.000000
 -0.250000  0.250000  0.022727     48.000000
 -0.227273  0.250000  0.022727     24.000000
  0.295455  0.272727  0.022727     24.000000
  0.318182  0.272727  0.022727     48.000000
  0.340909  0.272727  0.022727     48.000000
  0.363636  0.272727  0.022727     48.000000
  0.386364  0.272727  0.022727     48.000000
  0.409091  0.272727  0.022727     48.000000
  0.431818  0.272727  0.022727     48.000000
  0.454545  0.272727  0.022727     48.000000
  0.477273  0.272727  0.022727     48.000000
  0.500000  0.272727  0.022727     48.000000
 -0.477273  0.272727  0.022727     48.000000
 -0.454545  0.272727  0.022727     48.000000
 -0.431818  0.272727  0.022727     48.000000
 -0.409091  0.272727  0.022727     48.000000
 -0.386364  0.272727  0.022727     48.000000
 -0.363636  0.272727  0.022727     48.000000
 -0.340909  0.272727  0.022727     48.000000
 -0.318182  0.272727  0.022727     48.000000
 -0.295455  0.272727  0.022727     48.000000
 -0.272727  0.272727  0.022727     48.000000
 -0.250000  0.272727  0.022727     24.000000
  0.318182  0.295455  0.022727     24.000000
  0.340909  0.295455  0.022727     48.000000
  0.363636  0.295455  0.022727     48.000000
  0.386364  0.295455  0.022727     48.000000
  0.409091  0.295455  0.022727     48.000000
  0.431818  0.295455  0.022727     48.000000
  0.454545  0.295455  0.022727     48.000000
  0.477273  0.295455  0.022727     48.000000
  0.500000  0.295455  0.022727     48.000000
 -0.477273  0.295455  0.022727     48.000000
 -0.454545  0.295455  0.022727     48.000000
 -0.431818  0.295455  0.022727     48.000000
 -0.409091  0.295455  0.022727     48.000000
 -0.386364  0.295455  0.022727     48.000000
 -0.363636  0.295455  0.022727     48.000000
 -0.340909  0.295455  0.022727     48.000000
 -0.318182  0.295455  0.022727     48.000000
 -0.295455  0.295455  0.022727     48.000000
 -0.272727  0.295455  0.022727     24.000000
  0.340909  0.318182  0.022727     24.000000
  0.363636  0.318182  0.022727     48.000000
  0.386364  0.318182  0.022727     48.000000
  0.409091  0.318182  0.022727     48.000000
  0.431818  0.318182  0.022727     48.000000
  0.454545  0.318182  0.022727     48.000000
  0.477273  0.318182  0.022727     48.000000
  0.500000  0.318182  0.022727     48.000000
 -0.477273  0.318182  0.022727     48.000000
 -0.454545  0.318182  0.022727     48.000000
 -0.431818  0.318182  0.022727     48.000000
 -0.409091  0.318182  0.022727     48.000000
 -0.386364  0.318182  0.022727     48.000000
 -0.363636  0.318182  0.022727     48.000000
 -0.340909  0.318182  0.022727     48.000000
 -0.318182  0.318182  0.022727     48.000000
 -0.295455  0.318182  0.022727     24.000000
  0.363636  0.340909  0.022727     24.000000
  0.386364  0.340909  0.022727     48.000000
  0.409091  0.340909  0.022727     48.000000
  0.431818  0.340909  0.022727     48.000000
  0.454545  0.340909  0.022727     48.000000
  0.477273  0.340909  0.022727     48.000000
  0.500000  0.340909  0.022727     48.000000
 -0.477273  0.340909  0.022727     48.000000
 -0.454545  0.340909  0.022727     48.000000
 -0.431818  0.340909  0.022727     48.000000
 -0.409091  0.340909  0.022727     48.000000
 -0.386364  0.340909  0.022727     48.000000
 -0.363636  0.340909  0.022727     48.000000
 -0.340909  0.340909  0.022727     48.000000
 -0.318182  0.340909  0.022727     24.000000
  0.386364  0.363636  0.022727     24.000000
  0.409091  0.363636  0.022727     48.000000
  0.431818  0.363636  0.022727     48.000000
  0.454545  0.363636  0.022727     48.000000
  0.477273  0.363636  0.022727     48.000000
  0.500000  0.363636  0.022727     48.000000
 -0.477273  0.363636  0.022727     48.000000
 -0.454545  0.363636  0.022727     48.000000
 -0.431818  0.363636  0.022727     48.000000
 -0.409091  0.363636  0.022727     48.000000
 -0.386364  0.363636  0.022727     48.000000
 -0.363636  0.363636  0.022727     48.000000
 -0.340909  0.363636  0.022727     24.000000
  0.409091  0.386364  0.022727     24.000000
  0.431818  0.386364  0.022727     48.000000
  0.454545  0.386364  0.022727     48.000000
  0.477273  0.386364  0.022727     48.000000
  0.500000  0.386364  0.022727     48.000000
 -0.477273  0.386364  0.022727     48.000000
 -0.454545  0.386364  0.022727     48.000000
 -0.431818  0.386364  0.022727     48.000000
 -0.409091  0.386364  0.022727     48.000000
 -0.386364  0.386364  0.022727     48.000000
 -0.363636  0.386364  0.022727     24.000000
  0.431818  0.409091  0.022727     24.000000
  0.454545  0.409091  0.022727     48.000000
  0.477273  0.409091  0.022727     48.000000
  0.500000  0.409091  0.022727     48.000000
 -0.477273  0.409091  0.022727     48.000000
 -0.454545  0.409091  0.022727     48.000000
 -0.431818  0.409091  0.022727     48.000000
 -0.409091  0.409091  0.022727     48.000000
 -0.386364  0.409091  0.022727     24.000000
  0.454545  0.431818  0.022727     24.000000
  0.477273  0.431818  0.022727     48.000000
  0.500000  0.431818  0.022727     48.000000
 -0.477273  0.431818  0.022727     48.000000
 -0.454545  0.431818  0.022727     48.000000
 -0.431818  0.431818  0.022727     48.000000
 -0.409091  0.431818  0.022727     24.000000
  0.477273  0.454545  0.022727     24.000000
  0.500000  0.454545  0.022727     48.000000
 -0.477273  0.454545  0.022727     48.000000
 -0.454545  0.454545  0.022727     48.000000
 -0.431818  0.454545  0.022727     24.000000
  0.500000  0.477273  0.022727     24.000000
 -0.477273  0.477273  0.022727     48.000000
 -0.454545  0.477273  0.022727     24.000000
 -0.477273  0.500000  0.022727     12.000000
  0.136364  0.090909  0.045455     24.000000
  0.159091  0.090909  0.045455     48.000000
  0.181818  0.090909  0.045455     48.000000
  0.204545  0.090909  0.045455     48.000000
  0.227273  0.090909  0.045455     48.000000
  0.250000  0.090909  0.045455     48.000000
  0.272727  0.090909  0.045455     48.000000
  0.295455  0.090909  0.045455     48.000000
  0.318182  0.090909  0.045455     48.000000
  0.340909  0.090909  0.045455     48.000000
  0.363636  0.090909  0.045455     48.000000
  0.386364  0.090909  0.045455     48.000000
  0.409091  0.090909  0.045455     48.000000
  0.431818  0.090909  0.045455     48.000000
  0.454545  0.090909  0.045455     48.000000
  0.477273  0.090909  0.045455     48.000000
  0.500000  0.090909  0.045455     48.000000
 -0.477273  0.090909  0.045455     48.000000
 -0.454545  0.090909  0.045455     24.000000
  0.159091  0.113636  0.045455     24.000000
  0.181818  0.113636  0.045455     48.000000
  0.204545  0.113636  0.045455     48.000000
  0.227273  0.113636  0.045455     48.000000
  0.250000  0.113636  0.045455     48.000000
  0.272727  0.113636  0.045455     48.000000
  0.295455  0.113636  0.045455     48.000000
  0.318182  0.113636  0.045455     48.000000
  0.340909  0.113636  0.045455     48.000000
  0.363636  0.113636  0.045455     48.000000
  0.386364  0.113636  0.045455     48.000000
  0.409091  0.113636  0.045455     48.000000
  0.431818  0.113636  0.045455     48.000000
  0.454545  0.113636  0.045455     48.000000
  0.477273  0.113636  0.045455     48.000000
  0.500000  0.113636  0.045455     48.000000
 -0.477273  0.113636  0.045455     48.000000
 -0.454545  0.113636  0.045455     48.000000
 -0.431818  0.113636  0.045455     48.000000
 -0.409091  0.113636  0.045455     48.000000
 -0.386364  0.113636  0.045455     48.000000
 -0.363636  0.113636  0.045455     48.000000
 -0.340909  0.113636  0.045455     48.000000
 -0.318182  0.113636  0.045455     48.000000
 -0.295455  0.113636  0.045455     48.000000
 -0.272727  0.113636  0.045455     48.000000
 -0.250000  0.113636  0.045455     48.000000
 -0.227273  0.113636  0.045455     48.000000
 -0.204545  0.113636  0.045455     48.000000
 -0.181818  0.113636  0.045455     48.000000
 -0.159091  0.113636  0.045455     48.000000
 -0.136364  0.113636  0.045455     48.000000
 -0.113636  0.113636  0.045455     48.000000
 -0.090909  0.113636  0.045455     48.000000
 -0.068182  0.113636  0.045455     24.000000
  0.181818  0.136364  0.045455     24.000000
  0.204545  0.136364  0.045455     48.000000
  0.227273  0.136364  0.045455     48.000000
  0.250000  0.136364  0.045455     48.000000
  0.272727  0.136364  0.045455     48.000000
  0.295455  0.136364  0.045455     48.000000
  0.318182  0.136364  0.045455     48.000000
  0.340909  0.136364  0.045455     48.000000
  0.363636  0.136364  0.045455     48.000000
  0.386364  0.136364  0.045455     48.000000
  0.409091  0.136364  0.045455     48.000000
  0.431818  0.136364  0.045455     48.000000
  0.454545  0.136364  0.045455     48.000000
  0.477273  0.136364  0.045455     48.000000
  0.500000  0.136364  0.045455     48.000000
 -0.477273  0.136364  0.045455     48.000000
 -0.454545  0.136364  0.045455     48.000000
 -0.431818  0.136364  0.045455     48.000000
 -0.409091  0.136364  0.045455     48.000000
 -0.386364  0.136364  0.045455     48.000000
 -0.363636  0.136364  0.045455     48.000000
 -0.340909  0.136364  0.045455     48.000000
 -0.318182  0.136364  0.045455     48.000000
 -0.295455  0.136364  0.045455     48.000000
 -0.272727  0.136364  0.045455     48.000000
 -0.250000  0.136364  0.045455     48.000000
 -0.227273  0.136364  0.045455     48.000000
 -0.204545  0.136364  0.045455     48.000000
 -0.181818  0.136364  0.045455     48.000000
 -0.159091  0.136364  0.045455     48.000000
 -0.136364  0.136364  0.045455     48.000000
 -0.113636  0.136364  0.045455     48.000000
 -0.090909  0.136364  0.045455     24.000000
  0.204545  0.159091  0.045455     24.000000
  0.227273  0.159091  0.045455     48.000000
  0.250000  0.159091  0.045455     48.000000
  0.272727  0.159091  0.045455     48.000000
  0.295455  0.159091  0.045455     48.000000
  0.318182  0.159091  0.045455     48.000000
  0.340909  0.159091  0.045455     48.000000
  0.363636  0.159091  0.045455     48.000000
  0.386364  0.159091  0.045455     48.000000
  0.409091  0.159091  0.045455     48.000000
  0.431818  0.159091  0.045455     48.000000
  0.454545  0.159091  0.045455     48.000000
  0.477273  0.159091  0.045455     48.000000
  0.500000  0.159091  0.045455     48.000000
 -0.477273  0.159091  0.045455     48.000000
 -0.454545  0.159091  0.045455     48.000000
 -0.431818  0.159091  0.045455     48.000000
 -0.409091  0.159091  0.045455     48.000000
 -0.386364  0.159091  0.045455     48.000000
 -0.363636  0.159091  0.045455     48.000000
 -0.340909  0.159091  0.045455     48.000000
 -0.318182  0.159091  0.045455     48.000000
 -0.295455  0.159091  0.045455     48.000000
 -0.272727  0.159091  0.045455     48.000000
 -0.250000  0.159091  0.045455     48.000000
 -0.227273  0.159091  0.045455     48.000000
 -0.204545  0.159091  0.045455     48.000000
 -0.181818  0.159091  0.045455     48.000000
 -0.159091  0.159091  0.045455     48.000000
 -0.136364  0.159091  0.045455     48.000000
 -0.113636  0.159091  0.045455     24.000000
  0.227273  0.181818  0.045455     24.000000
  0.250000  0.181818  0.045455     48.000000
  0.272727  0.181818  0.045455     48.000000
  0.295455  0.181818  0.045455     48.000000
  0.318182  0.181818  0.045455     48.000000
  0.340909  0.181818  0.045455     48.000000
  0.363636  0.181818  0.045455     48.000000
  0.386364  0.181818  0.045455     48.000000
  0.409091  0.181818  0.045455     48.000000
  0.431818  0.181818  0.045455     48.000000
  0.454545  0.181818  0.045455     48.000000
  0.477273  0.181818  0.045455     48.000000
  0.500000  0.181818  0.045455     48.000000
 -0.477273  0.181818  0.045455     48.000000
 -0.454545  0.181818  0.045455     48.000000
 -0.431818  0.181818  0.045455     48.000000
 -0.409091  0.181818  0.045455     48.000000
 -0.386364  0.181818  0.045455     48.000000
 -0.363636  0.181818  0.045455     48.000000
 -0.340909  0.181818  0.045455     48.000000
 -0.318182  0.181818  0.045455     48.000000
 -0.295455  0.181818  0.045455     48.000000
 -0.272727  0.181818  0.045455     48.000000
 -0.250000  0.181818  0.045455     48.000000
 -0.227273  0.181818  0.045455     48.000000
 -0.204545  0.181818  0.045455     48.000000
 -0.181818  0.181818  0.045455     48.000000
 -0.159091  0.181818  0.045455     48.000000
 -0.136364  0.181818  0.045455     24.000000
  0.250000  0.204545  0.045455     24.000000
  0.272727  0.204545  0.045455     48.000000
  0.295455  0.204545  0.045455     48.000000
  0.318182  0.204545  0.045455     48.000000
  0.340909  0.204545  0.045455     48.000000
  0.363636  0.204545  0.045455     48.000000
  0.386364  0.204545  0.045455     48.000000
  0.409091  0.204545  0.045455     48.000000
  0.431818  0.204545  0.045455     48.000000
  0.454545  0.204545  0.045455     48.000000
  0.477273  0.204545  0.045455     48.000000
  0.500000  0.204545  0.045455     48.000000
 -0.477273  0.204545  0.045455     48.000000
 -0.454545  0.204545  0.045455     48.000000
 -0.431818  0.204545  0.045455     48.000000
 -0.409091  0.204545  0.045455     48.000000
 -0.386364  0.204545  0.045455     48.000000
 -0.363636  0.204545  0.045455     48.000000
 -0.340909  0.204545  0.045455     48.000000
 -0.318182  0.204545  0.045455     48.000000
 -0.295455  0.204545  0.045455     48.000000
 -0.272727  0.204545  0.045455     48.000000
 -0.250000  0.204545  0.045455     48.000000
 -0.227273  0.204545  0.045455     48.000000
 -0.204545  0.204545  0.045455     48.000000
 -0.181818  0.204545  0.045455     48.000000
 -0.159091  0.204545  0.045455     24.000000
  0.272727  0.227273  0.045455     24.000000
  0.295455  0.227273  0.045455     48.000000
  0.318182  0.227273  0.045455     48.000000
  0.340909  0.227273  0.045455     48.000000
  0.363636  0.227273  0.045455     48.000000
  0.386364  0.227273  0.045455     48.000000
  0.409091  0.227273  0.045455     48.000000
  0.431818  0.227273  0.045455     48.000000
  0.454545  0.227273  0.045455     48.000000
  0.477273  0.227273  0.045455     48.000000
  0.500000  0.227273  0.045455     48.000000
 -0.477273  0.227273  0.045455     48.000000
 -0.454545  0.227273  0.045455     48.000000
 -0.431818  0.227273  0.045455     48.000000
 -0.409091  0.227273  0.045455     48.000000
 -0.386364  0.227273  0.045455     48.000000
 -0.363636  0.227273  0.045455     48.000000
 -0.340909  0.227273  0.045455     48.000000
 -0.318182  0.227273  0.045455     48.000000
 -0.295455  0.227273  0.045455     48.000000
 -0.272727  0.227273  0.045455     48.000000
 -0.250000  0.227273  0.045455     48.000000
 -0.227273  0.227273  0.045455     48.000000
 -0.204545  0.227273  0.045455     48.000000
 -0.181818  0.227273  0.045455     24.000000
  0.295455  0.250000  0.045455     24.000000
  0.318182  0.250000  0.045455     48.000000
  0.340909  0.250000  0.045455     48.000000
  0.363636  0.250000  0.045455     48.000000
  0.386364  0.250000  0.045455     48.000000
  0.409091  0.250000  0.045455     48.000000
  0.431818  0.250000  0.045455     48.000000
  0.454545  0.250000  0.045455     48.000000
  0.477273  0.250000  0.045455     48.000000
  0.500000  0.250000  0.045455     48.000000
 -0.477273  0.250000  0.045455     48.000000
 -0.454545  0.250000  0.045455     48.000000
 -0.431818  0.250000  0.045455     48.000000
 -0.409091  0.250000  0.045455     48.000000
 -0.386364  0.250000  0.045455     48.000000
 -0.363636  0.250000  0.045455     48.000000
 -0.340909  0.250000  0.045455     48.000000
 -0.318182  0.250000  0.045455     48.000000
 -0.295455  0.250000  0.045455     48.000000
 -0.272727  0.250000  0.045455     48.000000
 -0.250000  0.250000  0.045455     48.000000
 -0.227273  0.250000  0.045455     48.000000
 -0.204545  0.250000  0.045455     24.000000
  0.318182  0.272727  0.045455     24.000000
  0.340909  0.272727  0.045455     48.000000
  0.363636  0.272727  0.045455     48.000000
  0.386364  0.272727  0.045455     48.000000
  0.409091  0.272727  0.045455     48.000000
  0.431818  0.272727  0.045455     48.000000
  0.454545  0.272727  0.045455     48.000000
  0.477273  0.272727  0.045455     48.000000
  0.500000  0.272727  0.045455     48.000000
 -0.477273  0.272727  0.045455     48.000000
 -0.454545  0.272727  0.045455     48.000000
 -0.431818  0.272727  0.045455     48.000000
 -0.409091  0.272727  0.045455     48.000000
 -0.386364  0.272727  0.045455     48.000000
 -0.363636  0.272727  0.045455     48.000000
 -0.340909  0.272727  0.045455     48.000000
 -0.318182  0.272727  0.045455     48.000000
 -0.295455  0.272727  0.045455     48.000000
 -0.272727  0.272727  0.045455     48.000000
 -0.250000  0.272727  0.045455     48.000000
 -0.227273  0.272727  0.045455     24.000000
  0.340909  0.295455  0.045455     24.000000
  0.363636  0.295455  0.045455     48.000000
  0.386364  0.295455  0.045455     48.000000
  0.409091  0.295455  0.045455     48.000000
  0.431818  0.295455  0.045455     48.000000
  0.454545  0.295455  0.045455     48.000000
  0.477273  0.295455  0.045455     48.000000
  0.500000  0.295455  0.045455     48.000000
 -0.477273  0.295455  0.045455     48.000000
 -0.454545  0.295455  0.045455     48.000000
 -0.431818  0.295455  0.045455     48.000000
 -0.409091  0.295455  0.045455     48.000000
 -0.386364  0.295455  0.045455     48.000000
 -0.363636  0.295455  0.045455     48.000000
 -0.340909  0.295455  0.045455     48.000000
 -0.318182  0.295455  0.045455     48.000000
 -0.295455  0.295455  0.045455     48.000000
 -0.272727  0.295455  0.045455     48.000000
 -0.250000  0.295455  0.045455     24.000000
  0.363636  0.318182  0.045455     24.000000
  0.386364  0.318182  0.045455     48.000000
  0.409091  0.318182  0.045455     48.000000
  0.431818  0.318182  0.045455     48.000000
  0.454545  0.318182  0.045455     48.000000
  0.477273  0.318182  0.045455     48.000000
  0.500000  0.318182  0.045455     48.000000
 -0.477273  0.318182  0.045455     48.000000
 -0.454545  0.318182  0.045455     48.000000
 -0.431818  0.318182  0.045455     48.000000
 -0.409091  0.318182  0.045455     48.000000
 -0.386364  0.318182  0.045455     48.000000
 -0.363636  0.318182  0.045455     48.000000
 -0.340909  0.318182  0.045455     48.000000
 -0.318182  0.318182  0.045455     48.000000
 -0.295455  0.318182  0.045455     48.000000
 -0.272727  0.318182  0.045455     24.000000
  0.386364  0.340909  0.045455     24.000000
  0.409091  0.340909  0.045455     48.000000
  0.431818  0.340909  0.045455     48.000000
  0.454545  0.340909  0.045455     48.000000
  0.477273  0.340909  0.045455     48.000000
  0.500000  0.340909  0.045455     48.000000
 -0.477273  0.340909  0.045455     48.000000
 -0.454545  0.340909  0.045455     48.000000
 -0.431818  0.340909  0.045455     48.000000
 -0.409091  0.340909  0.045455     48.000000
 -0.386364  0.340909  0.045455     48.000000
 -0.363636  0.340909  0.045455     48.000000
 -0.340909  0.340909  0.045455     48.000000
 -0.318182  0.340909  0.045455     48.000000
 -0.295455  0.340909  0.045455     24.000000
  0.409091  0.363636  0.045455     24.000000
  0.431818  0.363636  0.045455     48.000000
  0.454545  0.363636  0.045455     48.000000
  0.477273  0.363636  0.045455     48.000000
  0.500000  0.363636  0.045455     48.000000
 -0.477273  0.363636  0.045455     48.000000
 -0.454545  0.363636  0.045455     48.000000
 -0.431818  0.363636  0.045455     48.000000
 -0.409091  0.363636  0.045455     48.000000
 -0.386364  0.363636  0.045455     48.000000
 -0.363636  0.363636  0.045455     48.000000
 -0.340909  0.363636  0.045455     48.000000
 -0.318182  0.363636  0.045455     24.000000
  0.431818  0.386364  0.045455     24.000000
  0.454545  0.386364  0.045455     48.000000
  0.477273  0.386364  0.045455     48.000000
  0.500000  0.386364  0.045455     48.000000
 -0.477273  0.386364  0.045455     48.000000
 -0.454545  0.386364  0.045455     48.000000
 -0.431818  0.386364  0.045455     48.000000
 -0.409091  0.386364  0.045455     48.000000
 -0.386364  0.386364  0.045455     48.000000
 -0.363636  0.386364  0.045455     48.000000
 -0.340909  0.386364  0.045455     24.000000
[...]
      4      -2.1356      2.00000
      5       2.8971      2.00000
      6       3.4207      2.00000
      7       3.9661      2.00000
      8       6.0057      2.00000
      9       6.2563      2.00000
     10       6.4295      2.00000
     11       6.5768      2.00000
     12       7.1008      2.00000
     13       9.0195      0.00000
     14       9.0617      0.00000
     15       9.3592      0.00000
     16       9.7715      0.00000
     17      10.0415      0.00000
     18      13.9455      0.00000

 k-point  2153 :      -0.3182    0.4545    0.2045
  band No.  band energies     occupation 
      1     -23.3643      2.00000
      2     -23.3568      2.00000
      3     -23.3450      2.00000
      4      -2.1236      2.00000
      5       2.9721      2.00000
      6       3.3470      2.00000
      7       3.9223      2.00000
      8       6.0069      2.00000
      9       6.2655      2.00000
     10       6.4375      2.00000
     11       6.5664      2.00000
     12       7.1205      2.00000
     13       9.0389      0.00000
     14       9.1294      0.00000
     15       9.3040      0.00000
     16       9.6888      0.00000
     17      10.0203      0.00000
     18      14.1712      0.00000

 k-point  2154 :      -0.2955    0.4545    0.2045
  band No.  band energies     occupation 
      1     -23.3635      2.00000
      2     -23.3577      2.00000
      3     -23.3450      2.00000
      4      -2.1156      2.00000
      5       3.0410      2.00000
      6       3.2647      2.00000
      7       3.8982      2.00000
      8       6.0049      2.00000
      9       6.2774      2.00000
     10       6.4470      2.00000
     11       6.5573      2.00000
     12       7.1310      2.00000
     13       9.0571      0.00000
     14       9.1922      0.00000
     15       9.2668      0.00000
     16       9.6321      0.00000
     17      10.0099      0.00000
     18      14.3574      0.00000

 k-point  2155 :      -0.2727    0.4545    0.2045
  band No.  band energies     occupation 
      1     -23.3629      2.00000
      2     -23.3584      2.00000
      3     -23.3449      2.00000
      4      -2.1117      2.00000
      5       3.0819      2.00000
      6       3.1971      2.00000
      7       3.8931      2.00000
      8       6.0016      2.00000
      9       6.2882      2.00000
     10       6.4584      2.00000
     11       6.5531      2.00000
     12       7.1315      2.00000
     13       9.0721      0.00000
     14       9.1992      0.00000
     15       9.2742      0.00000
     16       9.6307      0.00000
     17      10.0077      0.00000
     18      14.4730      0.00000

 k-point  2156 :      -0.2500    0.4545    0.2045
  band No.  band energies     occupation 
      1     -23.3628      2.00000
      2     -23.3585      2.00000
      3     -23.3445      2.00000
      4      -2.1119      2.00000
      5       3.0269      2.00000
      6       3.2150      2.00000
      7       3.9043      2.00000
      8       5.9989      2.00000
      9       6.2936      2.00000
     10       6.4714      2.00000
     11       6.5558      2.00000
     12       7.1226      2.00000
     13       9.0747      0.00000
     14       9.1706      0.00000
     15       9.3040      0.00000
     16       9.6951      0.00000
     17      10.0138      0.00000
     18      14.4538      0.00000

 k-point  2157 :      -0.3182    0.4773    0.2045
  band No.  band energies     occupation 
      1     -23.3650      2.00000
      2     -23.3561      2.00000
      3     -23.3454      2.00000
      4      -2.1299      2.00000
      5       2.9726      2.00000
      6       3.4071      2.00000
      7       3.9353      2.00000
      8       6.0133      2.00000
      9       6.2326      2.00000
     10       6.4295      2.00000
     11       6.5678      2.00000
     12       7.1161      2.00000
     13       9.0031      0.00000
     14       9.1015      0.00000
     15       9.3307      0.00000
     16       9.6501      0.00000
     17      10.0176      0.00000
     18      13.9814      0.00000

 k-point  2158 :      -0.2955    0.4773    0.2045
  band No.  band energies     occupation 
      1     -23.3642      2.00000
      2     -23.3570      2.00000
      3     -23.3454      2.00000
      4      -2.1208      2.00000
      5       3.0327      2.00000
      6       3.3348      2.00000
      7       3.8964      2.00000
      8       6.0136      2.00000
      9       6.2517      2.00000
     10       6.4330      2.00000
     11       6.5588      2.00000
     12       7.1336      2.00000
     13       9.0296      0.00000
     14       9.1618      0.00000
     15       9.2892      0.00000
     16       9.5929      0.00000
     17      10.0070      0.00000
     18      14.2085      0.00000

 k-point  2159 :      -0.2727    0.4773    0.2045
  band No.  band energies     occupation 
      1     -23.3634      2.00000
      2     -23.3579      2.00000
      3     -23.3452      2.00000
      4      -2.1147      2.00000
      5       3.0814      2.00000
      6       3.2507      2.00000
      7       3.8840      2.00000
      8       6.0083      2.00000
      9       6.2735      2.00000
     10       6.4410      2.00000
     11       6.5535      2.00000
     12       7.1385      2.00000
     13       9.0535      0.00000
     14       9.2187      0.00000
     15       9.2502      0.00000
     16       9.5814      0.00000
     17      10.0038      0.00000
     18      14.3820      0.00000

 k-point  2160 :      -0.2955    0.5000    0.2045
  band No.  band energies     occupation 
      1     -23.3650      2.00000
      2     -23.3562      2.00000
      3     -23.3456      2.00000
      4      -2.1281      2.00000
      5       3.0011      2.00000
      6       3.4028      2.00000
      7       3.9219      2.00000
      8       6.0180      2.00000
      9       6.2215      2.00000
     10       6.4312      2.00000
     11       6.5636      2.00000
     12       7.1221      2.00000
     13       8.9975      0.00000
     14       9.1127      0.00000
     15       9.3341      0.00000
     16       9.5977      0.00000
     17      10.0103      0.00000
     18      13.9938      0.00000

 k-point  2161 :      -0.3182    0.4545    0.2273
  band No.  band energies     occupation 
      1     -23.3637      2.00000
      2     -23.3575      2.00000
      3     -23.3446      2.00000
      4      -2.1195      2.00000
      5       2.9602      2.00000
      6       3.3095      2.00000
      7       3.9141      2.00000
      8       6.0042      2.00000
      9       6.2835      2.00000
     10       6.4514      2.00000
     11       6.5653      2.00000
     12       7.1212      2.00000
     13       9.0896      0.00000
     14       9.1031      0.00000
     15       9.3082      0.00000
     16       9.7332      0.00000
     17      10.0235      0.00000
     18      14.3243      0.00000

 k-point  2162 :      -0.2955    0.4545    0.2273
  band No.  band energies     occupation 
      1     -23.3630      2.00000
      2     -23.3582      2.00000
      3     -23.3449      2.00000
      4      -2.1132      2.00000
      5       3.0409      2.00000
      6       3.2477      2.00000
      7       3.8864      2.00000
      8       6.0056      2.00000
      9       6.2863      2.00000
     10       6.4513      2.00000
     11       6.5555      2.00000
     12       7.1360      2.00000
     13       9.1101      0.00000
     14       9.1410      0.00000
     15       9.2716      0.00000
     16       9.6509      0.00000
     17      10.0106      0.00000
     18      14.4902      0.00000

 k-point  2163 :      -0.2727    0.4545    0.2273
  band No.  band energies     occupation 
      1     -23.3628      2.00000
      2     -23.3585      2.00000
      3     -23.3450      2.00000
      4      -2.1111      2.00000
      5       3.0854      2.00000
      6       3.2097      2.00000
      7       3.8769      2.00000
      8       6.0061      2.00000
      9       6.2872      2.00000
     10       6.4515      2.00000
     11       6.5517      2.00000
     12       7.1412      2.00000
     13       9.1184      0.00000
     14       9.1546      0.00000
     15       9.2629      0.00000
     16       9.6168      0.00000
     17      10.0067      0.00000
     18      14.5531      0.00000

 k-point  2164 :      -0.2955    0.4773    0.2273
  band No.  band energies     occupation 
      1     -23.3635      2.00000
      2     -23.3577      2.00000
      3     -23.3453      2.00000
      4      -2.1162      2.00000
      5       3.0479      2.00000
      6       3.2951      2.00000
      7       3.8759      2.00000
      8       6.0130      2.00000
      9       6.2709      2.00000
     10       6.4342      2.00000
     11       6.5558      2.00000
     12       7.1432      2.00000
     13       9.0759      0.00000
     14       9.1659      0.00000
     15       9.2545      0.00000
     16       9.6049      0.00000
     17      10.0065      0.00000
     18      14.4072      0.00000

 k-point  2165 :      -0.2727    0.4773    0.2273
  band No.  band energies     occupation 
      1     -23.3629      2.00000
      2     -23.3583      2.00000
      3     -23.3454      2.00000
      4      -2.1120      2.00000
      5       3.1114      2.00000
      6       3.2348      2.00000
      7       3.8540      2.00000
      8       6.0145      2.00000
      9       6.2783      2.00000
     10       6.4340      2.00000
     11       6.5496      2.00000
     12       7.1539      2.00000
     13       9.1039      0.00000
     14       9.1939      0.00000
     15       9.2264      0.00000
     16       9.5582      0.00000
     17      10.0010      0.00000
     18      14.5768      0.00000

 k-point  2166 :      -0.2500    0.4773    0.2273
  band No.  band energies     occupation 
      1     -23.3627      2.00000
      2     -23.3585      2.00000
      3     -23.3452      2.00000
      4      -2.1110      2.00000
      5       3.1187      2.00000
      6       3.2081      2.00000
      7       3.8587      2.00000
      8       6.0114      2.00000
      9       6.2844      2.00000
     10       6.4396      2.00000
     11       6.5494      2.00000
     12       7.1512      2.00000
     13       9.1229      0.00000
     14       9.1676      0.00000
     15       9.2406      0.00000
     16       9.5758      0.00000
     17      10.0021      0.00000
     18      14.6072      0.00000

 k-point  2167 :      -0.2727    0.5000    0.2273
  band No.  band energies     occupation 
      1     -23.3634      2.00000
      2     -23.3577      2.00000
      3     -23.3455      2.00000
      4      -2.1152      2.00000
      5       3.0817      2.00000
      6       3.2903      2.00000
      7       3.8589      2.00000
      8       6.0182      2.00000
      9       6.2637      2.00000
     10       6.4294      2.00000
     11       6.5520      2.00000
     12       7.1516      2.00000
     13       9.0701      0.00000
     14       9.1869      0.00000
     15       9.2483      0.00000
     16       9.5503      0.00000
     17      10.0012      0.00000
     18      14.4439      0.00000

 k-point  2168 :      -0.2500    0.5000    0.2500
  band No.  band energies     occupation 
      1     -23.3627      2.00000
      2     -23.3585      2.00000
      3     -23.3455      2.00000
      4      -2.1108      2.00000
      5       3.1478      2.00000
      6       3.2136      2.00000
      7       3.8375      2.00000
      8       6.0182      2.00000
      9       6.2786      2.00000
     10       6.4287      2.00000
     11       6.5470      2.00000
     12       7.1620      2.00000
     13       9.1291      0.00000
     14       9.1848      0.00000
     15       9.2171      0.00000
     16       9.5288      0.00000
     17       9.9983      0.00000
     18      14.6781      0.00000


--------------------------------------------------------------------------------------------------------


 soft charge-density along one line, spin component           1
         0         1         2         3         4         5         6         7         8         9
 total charge-density along one line
 
 pseudopotential strength for first ion, spin component:           1
 -3.470  -0.000  -0.000  -0.000  -0.000  -4.063  -0.000  -0.000
 -0.000  -3.470   0.000  -0.000  -0.000  -0.000  -4.063   0.000
 -0.000   0.000  -3.452   0.000   0.000  -0.000   0.000  -4.045
 -0.000  -0.000   0.000  -3.470   0.000  -0.000  -0.000   0.000
 -0.000  -0.000   0.000   0.000  -3.452  -0.000  -0.000   0.000
 -4.063  -0.000  -0.000  -0.000  -0.000  -4.613  -0.000  -0.000
 -0.000  -4.063   0.000  -0.000  -0.000  -0.000  -4.613   0.000
 -0.000   0.000  -4.045   0.000   0.000  -0.000   0.000  -4.595
 -0.000  -0.000   0.000  -4.063   0.000  -0.000  -0.000   0.000
 -0.000  -0.000   0.000   0.000  -4.045  -0.000  -0.000   0.000
 -0.000  -0.000  -0.000  -0.000   0.000  -0.000  -0.000  -0.000
 -0.000  -0.000  -0.000  -0.000   0.000  -0.000  -0.000  -0.000
  0.000   0.000   0.000   0.007   0.000   0.000   0.000   0.000
  0.007   0.000  -0.000   0.000  -0.000   0.006   0.000  -0.000
  0.000   0.007   0.000   0.000  -0.000   0.000   0.006   0.000
  0.000   0.000   0.000   0.007   0.000   0.000   0.000   0.000
  0.007   0.000  -0.000   0.000  -0.000   0.006   0.000  -0.000
  0.000   0.007   0.000   0.000  -0.000   0.000   0.006   0.000
 total augmentation occupancy for first ion, spin component:           1
  0.977  -0.000  -0.000  -0.000   0.000  -0.647   0.000   0.000   0.000  -0.000   0.000  -0.000  -0.000   0.325  -0.000   0.000
 -0.000   0.977  -0.000   0.000   0.000   0.000  -0.647  -0.000  -0.000   0.000  -0.000   0.000   0.000   0.000   0.325  -0.000
 -0.000  -0.000   1.193  -0.000   0.000   0.000  -0.000  -0.460  -0.000  -0.000  -0.000   0.000   0.000  -0.000   0.000  -0.000
 -0.000   0.000  -0.000   0.977   0.000   0.000  -0.000  -0.000  -0.647  -0.000  -0.000   0.000   0.325  -0.000   0.000  -0.031
  0.000   0.000  -0.000   0.000   1.193   0.000   0.000   0.000   0.000  -0.460  -0.000   0.000   0.000   0.000  -0.000  -0.000
 -0.647   0.000   0.000   0.000   0.000   1.712  -0.000  -0.000  -0.000  -0.000  -0.000   0.000   0.000  -0.201   0.000  -0.000
  0.000  -0.647  -0.000  -0.000   0.000  -0.000   1.712  -0.000   0.000   0.000   0.000  -0.000  -0.000  -0.000  -0.201   0.000
  0.000  -0.000  -0.460   0.000  -0.000  -0.000  -0.000   1.118   0.000  -0.000  -0.000  -0.000  -0.000   0.000  -0.000   0.000
  0.000  -0.000  -0.000  -0.647  -0.000  -0.000   0.000   0.000   1.712  -0.000  -0.000   0.000  -0.201   0.000  -0.000   0.030
  0.000   0.000  -0.000  -0.000  -0.460   0.000   0.000  -0.000  -0.000   1.118   0.000   0.000  -0.000  -0.000   0.000   0.000
  0.000  -0.000  -0.000  -0.000  -0.000   0.000   0.000  -0.000  -0.000  -0.000   2.562  -0.347   0.000   0.000   0.000   0.000
 -0.000   0.000  -0.000   0.000   0.000   0.000  -0.000   0.000  -0.000  -0.000  -0.347   0.057  -0.000  -0.000  -0.000  -0.000
 -0.000   0.000   0.000   0.325   0.000   0.000  -0.000  -0.000  -0.201  -0.000   0.000  -0.000   0.335  -0.000   0.000  -0.030
  0.325   0.000  -0.000  -0.000   0.000  -0.201  -0.000   0.000   0.000   0.000   0.000  -0.000  -0.000   0.335  -0.000   0.000
 -0.000   0.325  -0.000   0.000  -0.000   0.000  -0.201  -0.000  -0.000   0.000   0.000  -0.000   0.000  -0.000   0.335  -0.000
  0.000  -0.000  -0.000  -0.031  -0.000  -0.000   0.000   0.000   0.030   0.000   0.000  -0.000  -0.030   0.000  -0.000   0.004
 -0.031  -0.000   0.000   0.000  -0.000   0.030   0.000  -0.000  -0.000   0.000  -0.000  -0.000   0.000  -0.030   0.000  -0.000
  0.000  -0.031  -0.000  -0.000   0.000  -0.000   0.030   0.000   0.000  -0.000   0.000  -0.000  -0.000   0.000  -0.030   0.000


------------------------ aborting loop because EDIFF is reached ----------------------------------------


    CHARGE:  cpu time      0.9828: real time      0.9828
    FORLOC:  cpu time      0.0009: real time      0.0009
    FORNL :  cpu time      1.1867: real time      1.1867
    FORCOR:  cpu time      0.0220: real time      0.0224
    FORHAR:  cpu time      0.0013: real time      0.0014
    MIXING:  cpu time      0.0005: real time      0.0005
    OFIELD:  cpu time      0.0000: real time      0.0000

 VOLUME and BASIS-vectors are now :
 -----------------------------------------------------------------------------
  energy-cutoff  :      520.00
  volume of cell :       51.68
      direct lattice vectors                 reciprocal lattice vectors
     0.000000000  2.956487637  2.956487637    -0.169119598  0.169119598  0.169119598
     2.956487637  0.000000000  2.956487637     0.169119598 -0.169119598  0.169119598
     2.956487637  2.956487637  0.000000000     0.169119598  0.169119598 -0.169119598

  length of vectors
     4.181104914  4.181104914  4.181104914     0.292923736  0.292923736  0.292923736


 FORCES acting on ions
    electron-ion (+dipol)            ewald-force                    non-local-force                 convergence-correction
 -----------------------------------------------------------------------------------------------
   0.133E-06 0.133E-06 0.130E-06   -.456E-14 -.254E-14 -.862E-14   -.599E-17 -.252E-17 -.446E-17   -.526E-06 -.526E-06 -.526E-06
   -.251E-07 -.251E-07 -.284E-07   0.744E-14 -.109E-14 0.211E-13   -.179E-16 -.406E-17 -.159E-16   0.209E-06 0.209E-06 0.209E-06
   -.108E-06 -.108E-06 -.959E-07   -.278E-14 0.231E-14 -.130E-13   -.283E-17 0.249E-16 0.355E-16   -.119E-06 -.119E-06 -.119E-06
 -----------------------------------------------------------------------------------------------
   -.285E-09 -.286E-09 0.581E-08   0.104E-15 -.133E-14 -.532E-15   -.268E-16 0.183E-16 0.151E-16   -.436E-06 -.436E-06 -.436E-06
 
 
 POSITION                                       TOTAL-FORCE (eV/Angst)
 -----------------------------------------------------------------------------------
      4.43473      4.43473      4.43473         0.000000      0.000000      0.000000
      0.00000      0.00000      0.00000        -0.000000     -0.000000     -0.000000
      2.95649      2.95649      2.95649         0.000000     -0.000000     -0.000000
 -----------------------------------------------------------------------------------
    total drift:                               -0.000000     -0.000000     -0.000000


--------------------------------------------------------------------------------------------------------



  FREE ENERGIE OF THE ION-ELECTRON SYSTEM (eV)
  ---------------------------------------------------
  free  energy   TOTEN  =       -23.48460728 eV

  energy  without entropy=      -23.48460722  energy(sigma->0) =      -23.48460725
 


--------------------------------------------------------------------------------------------------------


    POTLOK:  cpu time      0.0214: real time      0.0214


--------------------------------------------------------------------------------------------------------


     LOOP+:  cpu time    274.6508: real time    274.6889
    4ORBIT:  cpu time      0.0000: real time      0.0000

 total amount of memory used by VASP MPI-rank0   134512. kBytes
=======================================================================

   base      :      30000. kBytes
   nonl-proj :      54324. kBytes
   fftplans  :       1833. kBytes
   grid      :        887. kBytes
   one-center:         15. kBytes
   wavefun   :      47453. kBytes
 
  
  
 General timing and accounting informations for this job:
 ========================================================
  
                  Total CPU time used (sec):      283.164
                            User time (sec):      274.675
                          System time (sec):        8.489
                         Elapsed time (sec):      283.226
  
                   Maximum memory used (kb):      270096.
                   Average memory used (kb):          N/A
  
                          Minor page faults:       544897
                          Major page faults:            0
                 Voluntary context switches:         7250
