    3    3    1    1
  0.1722808E+02  0.4181105E-09  0.4181105E-09  0.4181105E-09  0.5000000E-16
  1.000000000000000E-004
  CAR 
 skutterudites                           
     24   2168     18
 
  0.0000000E+00  0.0000000E+00  0.0000000E+00  0.1173929E-04
    1      -23.376142   1.000000
    2      -23.376142   1.000000
    3      -23.376142   1.000000
    4       -3.917051   1.000000
    5        5.061974   1.000000
    6        5.061975   1.000000
    7        5.061975   1.000000
    8        5.469613   1.000000
    9        5.469613   1.000000
   10        6.620639   1.000000
   11        6.620640   1.000000
   12        6.620640   1.000000
   13        9.494024   0.000000
   14        9.494024   0.000000
   15       10.508766   0.000000
   16       10.508766   0.000000
   17       10.508766   0.000000
   18       11.631047   0.000000
 
  0.2272727E-01  0.0000000E+00  0.0000000E+00  0.9391435E-04
    1      -23.376371   1.000000
    2      -23.376142   1.000000
    3      -23.376142   1.000000
    4       -3.910642   1.000000
    5        5.033286   1.000000
    6        5.033286   1.000000
    7        5.052096   1.000000
    8        5.498867   1.000000
    9        5.498867   1.000000
   10        6.600847   1.000000
   11        6.618629   1.000000
   12        6.618629   1.000000
   13        9.488479   0.000000
   14        9.488478   0.000000
   15       10.477281   0.000000
   16       10.526699   0.000000
   17       10.526700   0.000000
   18       11.695501   0.000000
 
  0.4545455E-01  0.0000000E+00  0.0000000E+00  0.9391435E-04
    1      -23.377048   1.000000
    2      -23.376142   1.000000
    3      -23.376142   1.000000
    4       -3.891400   1.000000
    5        4.963806   1.000000
    6        4.963807   1.000000
    7        5.021636   1.000000
    8        5.569925   1.000000
    9        5.569925   1.000000
   10        6.544187   1.000000
   11        6.612879   1.000000
   12        6.612879   1.000000
   13        9.473112   0.000000
   14        9.473112   0.000000
   15       10.402065   0.000000
   16       10.578995   0.000000
   17       10.578995   0.000000
   18       11.867126   0.000000
 
  0.6818182E-01  0.0000000E+00  0.0000000E+00  0.9391435E-04
    1      -23.378148   1.000000
    2      -23.376139   1.000000
    3      -23.376139   1.000000
    4       -3.859463   1.000000
    5        4.876076   1.000000
    6        4.876077   1.000000
    7        4.968205   1.000000
    8        5.659825   1.000000
    9        5.659825   1.000000
   10        6.458389   1.000000
   11        6.604245   1.000000
   12        6.604245   1.000000
   13        9.450987   0.000000
   14        9.450987   0.000000
   15       10.314534   0.000000
   16       10.661869   0.000000
   17       10.661869   0.000000
   18       12.107178   0.000000
 
  0.9090909E-01  0.0000000E+00  0.0000000E+00  0.9391435E-04
    1      -23.379661   1.000000
    2      -23.376134   1.000000
    3      -23.376133   1.000000
    4       -3.815081   1.000000
    5        4.781462   1.000000
    6        4.781463   1.000000
    7        4.888127   1.000000
    8        5.756330   1.000000
    9        5.756330   1.000000
   10        6.355018   1.000000
   11        6.594284   1.000000
   12        6.594284   1.000000
   13        9.425544   0.000000
   14        9.425544   0.000000
   15       10.233221   0.000000
   16       10.770722   0.000000
   17       10.770722   0.000000
   18       12.385187   0.000000
 
  0.1136364E+00  0.0000000E+00  0.0000000E+00  0.9391435E-04
    1      -23.381551   1.000000
    2      -23.376121   1.000000
    3      -23.376121   1.000000
    4       -3.758609   1.000000
    5        4.684961   1.000000
    6        4.684962   1.000000
    7        4.777311   1.000000
    8        5.852810   1.000000
    9        5.852811   1.000000
   10        6.247296   1.000000
   11        6.585500   1.000000
   12        6.585501   1.000000
   13        9.399619   0.000000
   14        9.399620   0.000000
   15       10.164789   0.000000
   16       10.901178   0.000000
   17       10.901178   0.000000
   18       12.677296   0.000000
 
  0.1363636E+00  0.0000000E+00  0.0000000E+00  0.9391435E-04
    1      -23.383768   1.000000
    2      -23.376110   1.000000
    3      -23.376109   1.000000
    4       -3.690436   1.000000
    5        4.589063   1.000000
    6        4.589063   1.000000
    7        4.632896   1.000000
    8        5.943914   1.000000
    9        5.943914   1.000000
   10        6.147320   1.000000
   11        6.581717   1.000000
   12        6.581717   1.000000
   13        9.375165   0.000000
   14        9.375165   0.000000
   15       10.109806   0.000000
   16       11.049418   0.000000
   17       11.049418   0.000000
   18       12.956802   0.000000
 
  0.1590909E+00  0.0000000E+00  0.0000000E+00  0.9391435E-04
    1      -23.386283   1.000000
    2      -23.376096   1.000000
    3      -23.376096   1.000000
    4       -3.611107   1.000000
    5        4.455147   1.000000
    6        4.495236   1.000000
    7        4.495236   1.000000
    8        6.023573   1.000000
    9        6.023573   1.000000
   10        6.063475   1.000000
   11        6.588517   1.000000
   12        6.588518   1.000000
   13        9.353357   0.000000
   14        9.353358   0.000000
   15       10.066257   0.000000
   16       11.212109   0.000000
   17       11.212111   0.000000
   18       13.180896   0.000000
 
  0.1818182E+00  0.0000000E+00  0.0000000E+00  0.9391435E-04
    1      -23.389033   1.000000
    2      -23.376079   1.000000
    3      -23.376079   1.000000
    4       -3.521299   1.000000
    5        4.247957   1.000000
    6        4.404477   1.000000
    7        4.404477   1.000000
    8        5.999554   1.000000
    9        6.084919   1.000000
   10        6.084919   1.000000
   11        6.612678   1.000000
   12        6.612679   1.000000
   13        9.334831   0.000000
   14        9.334831   0.000000
   15       10.031257   0.000000
   16       11.386244   0.000000
   17       11.386246   0.000000
   18       13.284538   0.000000
 
  0.2045455E+00  0.0000000E+00  0.0000000E+00  0.9391435E-04
    1      -23.391952   1.000000
    2      -23.376063   1.000000
    3      -23.376063   1.000000
    4       -3.421839   1.000000
    5        4.017750   1.000000
    6        4.317531   1.000000
    7        4.317531   1.000000
    8        5.955602   1.000000
    9        6.123056   1.000000
   10        6.123056   1.000000
   11        6.659089   1.000000
   12        6.659089   1.000000
   13        9.319842   0.000000
   14        9.319843   0.000000
   15       10.001789   0.000000
   16       11.568929   0.000000
   17       11.568930   0.000000
   18       13.224650   0.000000
 
  0.2272727E+00  0.0000000E+00  0.0000000E+00  0.9391435E-04
    1      -23.394995   1.000000
    2      -23.376048   1.000000
    3      -23.376048   1.000000
    4       -3.313659   1.000000
    5        3.771774   1.000000
    6        4.235024   1.000000
    7        4.235024   1.000000
    8        5.929803   1.000000
    9        6.138744   1.000000
   10        6.138744   1.000000
   11        6.726944   1.000000
   12        6.726945   1.000000
   13        9.308458   0.000000
   14        9.308459   0.000000
   15        9.975006   0.000000
   16       11.757261   0.000000
   17       11.757263   0.000000
   18       13.041053   0.000000
 
  0.2500000E+00  0.0000000E+00  0.0000000E+00  0.9391435E-04
    1      -23.398100   1.000000
    2      -23.376035   1.000000
    3      -23.376035   1.000000
    4       -3.197925   1.000000
    5        3.516949   1.000000
    6        4.157476   1.000000
    7        4.157477   1.000000
    8        5.919780   1.000000
    9        6.137556   1.000000
   10        6.137557   1.000000
   11        6.810479   1.000000
   12        6.810480   1.000000
   13        9.300611   0.000000
   14        9.300611   0.000000
   15        9.948303   0.000000
   16       11.948198   0.000000
   17       11.948201   0.000000
   18       12.798086   0.000000
 
  0.2727273E+00  0.0000000E+00  0.0000000E+00  0.9391435E-04
    1      -23.401188   1.000000
    2      -23.376017   1.000000
    3      -23.376017   1.000000
    4       -3.076032   1.000000
    5        3.259302   1.000000
    6        4.085347   1.000000
    7        4.085347   1.000000
    8        5.923233   1.000000
    9        6.125777   1.000000
   10        6.125778   1.000000
   11        6.903005   1.000000
   12        6.903005   1.000000
   13        9.296158   0.000000
   14        9.296159   0.000000
   15        9.919307   0.000000
   16       12.138451   0.000000
   17       12.138459   0.000000
   18       12.535987   0.000000
 
  0.2954545E+00  0.0000000E+00  0.0000000E+00  0.9391435E-04
    1      -23.404201   1.000000
    2      -23.375998   1.000000
    3      -23.375998   1.000000
    4       -2.949682   1.000000
    5        3.004057   1.000000
    6        4.019020   1.000000
    7        4.019021   1.000000
    8        5.938042   1.000000
    9        6.108185   1.000000
   10        6.108185   1.000000
   11        6.999124   1.000000
   12        6.999125   1.000000
   13        9.294896   0.000000
   14        9.294896   0.000000
   15        9.885900   0.000000
   16       12.276524   0.000000
   17       12.324405   0.000000
   18       12.324433   0.000000
 
  0.3181818E+00  0.0000000E+00  0.0000000E+00  0.9391435E-04
    1      -23.407084   1.000000
    2      -23.375980   1.000000
    3      -23.375980   1.000000
    4       -2.820909   1.000000
    5        2.755830   1.000000
    6        3.958836   1.000000
    7        3.958836   1.000000
    8        5.962158   1.000000
    9        6.087954   1.000000
   10        6.087955   1.000000
   11        7.094788   1.000000
   12        7.094788   1.000000
   13        9.296544   0.000000
   14        9.296545   0.000000
   15        9.846326   0.000000
   16       12.032413   0.000000
   17       12.502000   0.000000
   18       12.502180   0.000000
 
  0.3409091E+00  0.0000000E+00  0.0000000E+00  0.9391435E-04
    1      -23.409783   1.000000
    2      -23.375966   1.000000
    3      -23.375965   1.000000
    4       -2.692189   1.000000
    5        2.519037   1.000000
    6        3.905090   1.000000
    7        3.905090   1.000000
    8        5.993503   1.000000
    9        6.067167   1.000000
   10        6.067168   1.000000
   11        7.186833   1.000000
   12        7.186833   1.000000
   13        9.300756   0.000000
   14        9.300756   0.000000
   15        9.799533   0.000000
   16       11.811921   0.000000
   17       12.666647   0.000000
   18       12.667010   0.000000
 
  0.3636364E+00  0.0000000E+00  0.0000000E+00  0.9391435E-04
    1      -23.412237   1.000000
    2      -23.375954   1.000000
    3      -23.375954   1.000000
    4       -2.566596   1.000000
    5        2.298049   1.000000
    6        3.858029   1.000000
    7        3.858029   1.000000
    8        6.029758   1.000000
    9        6.047216   1.000000
   10        6.047217   1.000000
   11        7.272575   1.000000
   12        7.272576   1.000000
   13        9.307024   0.000000
   14        9.307024   0.000000
   15        9.745589   0.000000
   16       11.620509   0.000000
   17       12.813014   0.000000
   18       12.819268   0.000000
 
  0.3863636E+00  0.0000000E+00  0.0000000E+00  0.9391435E-04
    1      -23.414401   1.000000
    2      -23.375945   1.000000
    3      -23.375945   1.000000
    4       -2.447809   1.000000
    5        2.097479   1.000000
    6        3.817879   1.000000
    7        3.817879   1.000000
    8        6.029089   1.000000
    9        6.029089   1.000000
   10        6.068321   1.000000
   11        7.349660   1.000000
   12        7.349661   1.000000
   13        9.314744   0.000000
   14        9.314745   0.000000
   15        9.686270   0.000000
   16       11.461258   0.000000
   17       12.933758   0.000000
   18       12.971643   0.000000
 
  0.4090909E+00  0.0000000E+00  0.0000000E+00  0.9391435E-04
    1      -23.416230   1.000000
    2      -23.375935   1.000000
    3      -23.375935   1.000000
    4       -2.340156   1.000000
    5        1.922269   1.000000
    6        3.784799   1.000000
    7        3.784799   1.000000
    8        6.013465   1.000000
    9        6.013466   1.000000
   10        6.106259   1.000000
   11        7.415955   1.000000
   12        7.415956   1.000000
   13        9.323082   0.000000
   14        9.323084   0.000000
   15        9.625350   0.000000
   16       11.334971   0.000000
   17       13.041812   0.000000
   18       13.108778   0.000000
 
  0.4318182E+00  0.0000000E+00  0.0000000E+00  0.9391435E-04
    1      -23.417688   1.000000
    2      -23.375929   1.000000
    3      -23.375929   1.000000
    4       -2.248539   1.000000
    5        1.777781   1.000000
    6        3.758929   1.000000
    7        3.758930   1.000000
    8        6.000850   1.000000
    9        6.000850   1.000000
   10        6.140434   1.000000
   11        7.469605   0.999999
   12        7.469606   0.999999
   13        9.331085   0.000000
   14        9.331084   0.000000
   15        9.568330   0.000000
   16       11.240513   0.000000
   17       13.087015   0.000000
   18       13.106371   0.000000
 
  0.4545455E+00  0.0000000E+00  0.0000000E+00  0.9391435E-04
    1      -23.418752   1.000000
    2      -23.375926   1.000000
    3      -23.375926   1.000000
    4       -2.178116   1.000000
    5        1.669437   1.000000
    6        3.740379   1.000000
    7        3.740379   1.000000
    8        5.991602   1.000000
    9        5.991602   1.000000
   10        6.167714   1.000000
   11        7.509080   0.999997
   12        7.509080   0.999997
   13        9.337761   0.000000
   14        9.337761   0.000000
   15        9.521524   0.000000
   16       11.175649   0.000000
   17       13.114895   0.000000
   18       13.150666   0.000000
 
  0.4772727E+00  0.0000000E+00  0.0000000E+00  0.9391435E-04
    1      -23.419404   1.000000
    2      -23.375928   1.000000
    3      -23.375928   1.000000
    4       -2.133591   1.000000
    5        1.602091   1.000000
    6        3.729215   1.000000
    7        3.729215   1.000000
    8        5.985959   1.000000
    9        5.985959   1.000000
   10        6.185354   1.000000
   11        7.533233   0.999992
   12        7.533233   0.999992
   13        9.342188   0.000000
   14        9.342188   0.000000
   15        9.490710   0.000000
   16       11.137927   0.000000
   17       13.112421   0.000000
   18       13.131223   0.000000
 
  0.5000000E+00  0.0000000E+00  0.0000000E+00  0.4695718E-04
    1      -23.419621   1.000000
    2      -23.375929   1.000000
    3      -23.375929   1.000000
    4       -2.118347   1.000000
    5        1.579208   1.000000
    6        3.725485   1.000000
    7        3.725485   1.000000
    8        5.984058   1.000000
    9        5.984059   1.000000
   10        6.191453   1.000000
   11        7.541363   0.999989
   12        7.541364   0.999989
   13        9.343726   0.000000
   14        9.343726   0.000000
   15        9.479947   0.000000
   16       11.125569   0.000000
   17       13.122596   0.000000
   18       13.145532   0.000000
 
  0.2272727E-01  0.2272727E-01  0.0000000E+00  0.7043576E-04
    1      -23.376328   1.000000
    2      -23.376202   1.000000
    3      -23.376202   1.000000
    4       -3.908505   1.000000
    5        4.978224   1.000000
    6        5.063148   1.000000
    7        5.063149   1.000000
    8        5.474074   1.000000
    9        5.535090   1.000000
   10        6.601633   1.000000
   11        6.614250   1.000000
   12        6.614250   1.000000
   13        9.483571   0.000000
   14        9.489573   0.000000
   15       10.486978   0.000000
   16       10.522362   0.000000
   17       10.522363   0.000000
   18       11.717388   0.000000
 
  0.4545455E-01  0.2272727E-01  0.0000000E+00  0.2817431E-03
    1      -23.376832   1.000000
    2      -23.376261   1.000000
    3      -23.376166   1.000000
    4       -3.893552   1.000000
    5        4.894862   1.000000
    6        5.035875   1.000000
    7        5.051501   1.000000
    8        5.507459   1.000000
    9        5.603457   1.000000
   10        6.559026   1.000000
   11        6.606135   1.000000
   12        6.611406   1.000000
   13        9.468777   0.000000
   14        9.479867   0.000000
   15       10.431610   0.000000
   16       10.553222   0.000000
   17       10.567229   0.000000
   18       11.853806   0.000000
 
  0.6818182E-01  0.2272727E-01  0.0000000E+00  0.2817431E-03
    1      -23.377789   1.000000
    2      -23.376319   1.000000
    3      -23.376103   1.000000
    4       -3.865876   1.000000
    5        4.799318   1.000000
    6        4.968157   1.000000
    7        5.014734   1.000000
    8        5.581933   1.000000
    9        5.688164   1.000000
   10        6.482416   1.000000
   11        6.595155   1.000000
   12        6.607184   1.000000
   13        9.447310   0.000000
   14        9.461281   0.000000
   15       10.349043   0.000000
   16       10.616613   0.000000
   17       10.648489   0.000000
   18       12.070488   0.000000
 
  0.9090909E-01  0.2272727E-01  0.0000000E+00  0.2817431E-03
    1      -23.379165   1.000000
    2      -23.376368   1.000000
    3      -23.376041   1.000000
    4       -3.825683   1.000000
    5        4.697868   1.000000
    6        4.882073   1.000000
    7        4.952232   1.000000
    8        5.674628   1.000000
    9        5.779647   1.000000
   10        6.384205   1.000000
   11        6.582797   1.000000
   12        6.600594   1.000000
   13        9.422790   0.000000
   14        9.437009   0.000000
   15       10.267082   0.000000
   16       10.708165   0.000000
   17       10.756103   0.000000
   18       12.334949   0.000000
 
  0.1136364E+00  0.2272727E-01  0.0000000E+00  0.2817431E-03
    1      -23.380931   1.000000
    2      -23.376408   1.000000
    3      -23.375983   1.000000
    4       -3.773304   1.000000
    5        4.592817   1.000000
    6        4.788786   1.000000
    7        4.862204   1.000000
    8        5.772950   1.000000
    9        5.872006   1.000000
   10        6.277395   1.000000
   11        6.571361   1.000000
   12        6.593480   1.000000
   13        9.398174   0.000000
   14        9.410231   0.000000
   15       10.195801   0.000000
   16       10.823150   0.000000
   17       10.885725   0.000000
   18       12.622203   0.000000
 
  0.1363636E+00  0.2272727E-01  0.0000000E+00  0.2817431E-03
    1      -23.383037   1.000000
    2      -23.376438   1.000000
    3      -23.375930   1.000000
    4       -3.709100   1.000000
    5        4.483352   1.000000
    6        4.693261   1.000000
    7        4.744427   1.000000
    8        5.869407   1.000000
    9        5.960056   1.000000
   10        6.175174   1.000000
   11        6.564314   1.000000
   12        6.588933   1.000000
   13        9.375394   0.000000
   14        9.383418   0.000000
   15       10.137536   0.000000
   16       10.957228   0.000000
   17       11.033749   0.000000
   18       12.907375   0.000000
 
  0.1590909E+00  0.2272727E-01  0.0000000E+00  0.2817431E-03
    1      -23.385449   1.000000
    2      -23.376463   1.000000
    3      -23.375882   1.000000
    4       -3.633569   1.000000
    5        4.363920   1.000000
    6        4.598008   1.000000
    7        4.604967   1.000000
    8        5.957321   1.000000
    9        6.033299   1.000000
   10        6.092636   1.000000
   11        6.566765   1.000000
   12        6.591707   1.000000
   13        9.355530   0.000000
   14        9.358242   0.000000
   15       10.091132   0.000000
   16       11.106591   0.000000
   17       11.197022   0.000000
   18       13.154467   0.000000
 
  0.1818182E+00  0.2272727E-01  0.0000000E+00  0.2817431E-03
    1      -23.388120   1.000000
    2      -23.376482   1.000000
    3      -23.375839   1.000000
    4       -3.547346   1.000000
    5        4.220679   1.000000
    6        4.461389   1.000000
    7        4.504539   1.000000
    8        6.008838   1.000000
    9        6.029340   1.000000
   10        6.111484   1.000000
   11        6.585425   1.000000
   12        6.608215   1.000000
   13        9.335728   0.000000
   14        9.339060   0.000000
   15       10.054056   0.000000
   16       11.267854   0.000000
   17       11.372582   0.000000
   18       13.303510   0.000000
 
  0.2045455E+00  0.2272727E-01  0.0000000E+00  0.2817431E-03
    1      -23.390981   1.000000
    2      -23.376490   1.000000
    3      -23.375805   1.000000
    4       -3.451219   1.000000
    5        4.038358   1.000000
    6        4.335523   1.000000
    7        4.413888   1.000000
    8        5.961043   1.000000
    9        6.079017   1.000000
   10        6.152496   1.000000
   11        6.626396   1.000000
   12        6.644545   1.000000
   13        9.316447   0.000000
   14        9.326089   0.000000
   15       10.023419   0.000000
   16       11.437856   0.000000
   17       11.557379   0.000000
   18       13.294208   0.000000
 
  0.2272727E+00  0.2272727E-01  0.0000000E+00  0.2817431E-03
    1      -23.393977   1.000000
    2      -23.376491   1.000000
    3      -23.375777   1.000000
    4       -3.346063   1.000000
    5        3.820276   1.000000
    6        4.231850   1.000000
    7        4.326851   1.000000
    8        5.930342   1.000000
    9        6.104835   1.000000
   10        6.172358   1.000000
   11        6.690903   1.000000
   12        6.702294   1.000000
   13        9.300698   0.000000
   14        9.316512   0.000000
   15        9.996369   0.000000
   16       11.613470   0.000000
   17       11.747863   0.000000
   18       13.143348   0.000000
 
  0.2500000E+00  0.2272727E-01  0.0000000E+00  0.2817431E-03
    1      -23.397056   1.000000
    2      -23.376485   1.000000
    3      -23.375759   1.000000
    4       -3.232980   1.000000
    5        3.580792   1.000000
    6        4.143684   1.000000
    7        4.244083   1.000000
    8        5.915718   1.000000
    9        6.111257   1.000000
   10        6.173971   1.000000
   11        6.774065   1.000000
   12        6.777306   1.000000
   13        9.288617   0.000000
   14        9.310122   0.000000
   15        9.970234   0.000000
   16       11.791482   0.000000
   17       11.938812   0.000000
   18       12.919543   0.000000
 
  0.2727273E+00  0.2272727E-01  0.0000000E+00  0.2817431E-03
    1      -23.400147   1.000000
    2      -23.376471   1.000000
    3      -23.375749   1.000000
    4       -3.113269   1.000000
    5        3.331440   1.000000
    6        4.066304   1.000000
    7        4.166145   1.000000
    8        5.914978   1.000000
    9        6.104914   1.000000
   10        6.163429   1.000000
   11        6.863194   1.000000
   12        6.868662   1.000000
   13        9.280255   0.000000
   14        9.306643   0.000000
   15        9.942541   0.000000
   16       11.968468   0.000000
   17       12.117349   0.000000
   18       12.681382   0.000000
 
  0.2954545E+00  0.2272727E-01  0.0000000E+00  0.2817431E-03
    1      -23.403180   1.000000
    2      -23.376444   1.000000
    3      -23.375747   1.000000
    4       -2.988553   1.000000
    5        3.080141   1.000000
    6        3.997634   1.000000
    7        4.093517   1.000000
    8        5.925929   1.000000
    9        6.091316   1.000000
   10        6.145964   1.000000
   11        6.954428   1.000000
   12        6.968369   1.000000
   13        9.275600   0.000000
   14        9.305765   0.000000
   15        9.911018   0.000000
   16       12.140729   0.000000
   17       12.210595   0.000000
   18       12.524412   0.000000
 
  0.3181818E+00  0.2272727E-01  0.0000000E+00  0.2817431E-03
    1      -23.406103   1.000000
    2      -23.376409   1.000000
    3      -23.375753   1.000000
    4       -2.860721   1.000000
    5        2.832854   1.000000
    6        3.936830   1.000000
    7        4.026610   1.000000
    8        5.946389   1.000000
    9        6.074206   1.000000
   10        6.125276   1.000000
   11        7.046889   1.000000
   12        7.068379   1.000000
   13        9.274578   0.000000
   14        9.307106   0.000000
   15        9.873686   0.000000
   16       12.071243   0.000000
   17       12.304246   0.000000
   18       12.606868   0.000000
 
  0.3409091E+00  0.2272727E-01  0.0000000E+00  0.2817431E-03
    1      -23.408862   1.000000
    2      -23.376368   1.000000
    3      -23.375768   1.000000
    4       -2.732098   1.000000
    5        2.594620   1.000000
    6        3.883572   1.000000
    7        3.965781   1.000000
    8        5.973846   1.000000
    9        6.056014   1.000000
   10        6.104166   1.000000
   11        7.137463   1.000000
   12        7.164978   1.000000
   13        9.277042   0.000000
   14        9.310245   0.000000
   15        9.829096   0.000000
   16       11.866208   0.000000
   17       12.454806   0.000000
   18       12.766627   0.000000
 
  0.3636364E+00  0.2272727E-01  0.0000000E+00  0.2817431E-03
    1      -23.411392   1.000000
    2      -23.376324   1.000000
    3      -23.375794   1.000000
    4       -2.605534   1.000000
    5        2.370106   1.000000
    6        3.837768   1.000000
    7        3.911341   1.000000
    8        6.004367   1.000000
    9        6.038328   1.000000
   10        6.085940   1.000000
   11        7.223602   1.000000
   12        7.255087   1.000000
   13        9.282706   0.000000
   14        9.314703   0.000000
   15        9.776805   0.000000
   16       11.675046   0.000000
   17       12.588740   0.000000
   18       12.930613   0.000000
 
  0.3863636E+00  0.2272727E-01  0.0000000E+00  0.2817431E-03
    1      -23.413649   1.000000
    2      -23.376274   1.000000
    3      -23.375827   1.000000
    4       -2.484515   1.000000
    5        2.164003   1.000000
    6        3.799407   1.000000
    7        3.863547   1.000000
    8        6.022246   1.000000
    9        6.026829   1.000000
   10        6.080315   1.000000
   11        7.303032   1.000000
   12        7.336049   1.000000
   13        9.291124   0.000000
   14        9.319911   0.000000
   15        9.717883   0.000000
   16       11.511616   0.000000
   17       12.701020   0.000000
   18       13.076004   0.000000
 
  0.4090909E+00  0.2272727E-01  0.0000000E+00  0.2817431E-03
    1      -23.415586   1.000000
    2      -23.376217   1.000000
    3      -23.375867   1.000000
    4       -2.373115   1.000000
    5        1.981228   1.000000
    6        3.768529   1.000000
    7        3.822629   1.000000
    8        6.008530   1.000000
    9        6.025081   1.000000
   10        6.101430   1.000000
   11        7.373670   1.000000
   12        7.405547   1.000000
   13        9.301604   0.000000
   14        9.325265   0.000000
   15        9.655404   0.000000
   16       11.379664   0.000000
   17       12.793208   0.000000
   18       13.287915   0.000000
 
  0.4318182E+00  0.2272727E-01  0.0000000E+00  0.2817431E-03
    1      -23.417165   1.000000
    2      -23.376159   1.000000
    3      -23.375911   1.000000
    4       -2.276044   1.000000
    5        1.827077   1.000000
    6        3.745174   1.000000
    7        3.788763   1.000000
    8        5.997726   1.000000
    9        6.013466   1.000000
   10        6.132443   1.000000
   11        7.433567   1.000000
   12        7.461629   0.999999
   13        9.313182   0.000000
   14        9.330150   0.000000
   15        9.594331   0.000000
   16       11.279147   0.000000
   17       12.895739   0.000000
   18       13.302276   0.000000
 
  0.4545455E+00  0.2272727E-01  0.0000000E+00  0.2817431E-03
    1      -23.418360   1.000000
    2      -23.376101   1.000000
    3      -23.375961   1.000000
    4       -2.198389   1.000000
    5        1.707004   1.000000
    6        3.729383   1.000000
    7        3.762092   1.000000
    8        5.990223   1.000000
    9        6.002126   1.000000
   10        6.160479   1.000000
   11        7.480962   0.999999
   12        7.502791   0.999998
   13        9.324724   0.000000
   14        9.333945   0.000000
   15        9.540816   0.000000
   16       11.208146   0.000000
   17       12.923669   0.000000
   18       13.196367   0.000000
 
  0.4772727E+00  0.2272727E-01  0.0000000E+00  0.2817431E-03
    1      -23.419145   1.000000
    2      -23.376043   1.000000
    3      -23.376015   1.000000
    4       -2.145060   1.000000
    5        1.626118   1.000000
    6        3.721177   1.000000
    7        3.742721   1.000000
    8        5.986281   1.000000
    9        5.993285   1.000000
   10        6.180705   1.000000
   11        7.514327   0.999996
   12        7.528038   0.999993
   13        9.335005   0.000000
   14        9.335886   0.000000
   15        9.501213   0.000000
   16       11.164045   0.000000
   17       12.980104   0.000000
   18       13.131727   0.000000
 
  0.5000000E+00  0.2272727E-01  0.0000000E+00  0.2817431E-03
    1      -23.419506   1.000000
    2      -23.376074   1.000000
    3      -23.375986   1.000000
    4       -2.119933   1.000000
    5        1.588419   1.000000
    6        3.720568   1.000000
    7        3.730730   1.000000
    8        5.986061   1.000000
    9        5.987619   1.000000
   10        6.190421   1.000000
   11        7.532438   0.999992
   12        7.536910   0.999991
   13        9.334664   0.000000
   14        9.342944   0.000000
   15        9.481296   0.000000
   16       11.144633   0.000000
   17       13.022231   0.000000
   18       13.054679   0.000000
 
 -0.4772727E+00  0.2272727E-01  0.0000000E+00  0.2817431E-03
    1      -23.419434   1.000000
    2      -23.376135   1.000000
    3      -23.375925   1.000000
    4       -2.124991   1.000000
    5        1.595995   1.000000